
     Program PWSCF v.7.1 starts on 10Oct2022 at  9:47: 6 

     This program is part of the open-source Quantum ESPRESSO suite
     for quantum simulation of materials; please cite
         "P. Giannozzi et al., J. Phys.:Condens. Matter 21 395502 (2009);
         "P. Giannozzi et al., J. Phys.:Condens. Matter 29 465901 (2017);
         "P. Giannozzi et al., J. Chem. Phys. 152 154105 (2020);
          URL http://www.quantum-espresso.org", 
     in publications or presentations arising from this work. More details at
     http://www.quantum-espresso.org/quote

     Parallel version (MPI), running on    24 processors

     MPI processes distributed on     3 nodes
     18629 MiB available memory on the printing compute node when the environment starts
 
     Waiting for input...
     Reading input from standard input

     Current dimensions of program PWSCF are:
     Max number of different atomic species (ntypx) = 10
     Max number of k-points (npk) =  40000
     Max angular momentum in pseudopotentials (lmaxx) =  4
     file Pt.pbe-n-rrkjus_psl.1.0.0.UPF: wavefunction(s)  6S renormalized

     **************************************************************************
     Initializing libbeef V0.1.2 with the BEEF-vdW functional.
     Citation: Wellendorff et al., PRB 85, 235149 (2012).
     **************************************************************************


     IMPORTANT: XC functional enforced from input :
     Exchange-correlation= BEEF-VDW
                           (   1   4  43  14   2   0   0)
     Any further DFT definition will be discarded
     Please, verify this is what you really want

 
     K-points division:     npool     =      24
     Subspace diagonalization in iterative solution of the eigenvalue problem:
     a serial algorithm will be used

 
     G-vector sticks info
     --------------------
     sticks:   dense  smooth     PW     G-vecs:    dense   smooth      PW
     Sum        1345    1345    385                32647    32647    5065
 
     Using Slab Decomposition
 


     bravais-lattice index     =            2
     lattice parameter (alat)  =       7.5710  a.u.
     unit-cell volume          =     108.4925 (a.u.)^3
     number of atoms/cell      =            1
     number of atomic types    =            1
     number of electrons       =        10.00
     number of Kohn-Sham states=            9
     kinetic-energy cutoff     =     170.0000  Ry
     charge density cutoff     =     680.0000  Ry
     scf convergence threshold =      1.0E-09
     mixing beta               =       0.7000
     number of iterations used =            8  plain     mixing
     Exchange-correlation= BEEF-VDW
                           (   1   4  43  14   2   0   0)

     celldm(1)=   7.571000  celldm(2)=   0.000000  celldm(3)=   0.000000
     celldm(4)=   0.000000  celldm(5)=   0.000000  celldm(6)=   0.000000

     crystal axes: (cart. coord. in units of alat)
               a(1) = (  -0.500000   0.000000   0.500000 )  
               a(2) = (   0.000000   0.500000   0.500000 )  
               a(3) = (  -0.500000   0.500000   0.000000 )  

     reciprocal axes: (cart. coord. in units 2 pi/alat)
               b(1) = ( -1.000000 -1.000000  1.000000 )  
               b(2) = (  1.000000  1.000000  1.000000 )  
               b(3) = ( -1.000000  1.000000 -1.000000 )  


     PseudoPot. # 1 for Pt read from file:
     ./pseudo/Pt.pbe-n-rrkjus_psl.1.0.0.UPF
     MD5 check sum: 6bc887cfe28d63a5fc1f72d35a7d3ef7
     Pseudo is Ultrasoft + core correction, Zval = 10.0
     Generated using &quot;atomic&quot; code by A. Dal Corso  v.6.3
     Using radial grid of 1277 points,  6 beta functions with: 
                l(1) =   0
                l(2) =   0
                l(3) =   1
                l(4) =   1
                l(5) =   2
                l(6) =   2
     Q(r) pseudized with 0 coefficients 


     atomic species   valence    mass     pseudopotential
        Pt            10.00   195.07800     Pt( 1.00)

     48 Sym. Ops., with inversion, found



   Cartesian axes

     site n.     atom                  positions (alat units)
         1           Pt  tau(   1) = (   0.0000000   0.0000000   0.0000000  )

     number of k points=    29  Gaussian smearing, width (Ry)=  0.0200
                       cart. coord. in units 2pi/alat
        k(    1) = (   0.0000000   0.0000000   0.0000000), wk =   0.0039062
        k(    2) = (  -0.1250000   0.1250000  -0.1250000), wk =   0.0312500
        k(    3) = (  -0.2500000   0.2500000  -0.2500000), wk =   0.0312500
        k(    4) = (  -0.3750000   0.3750000  -0.3750000), wk =   0.0312500
        k(    5) = (   0.5000000  -0.5000000   0.5000000), wk =   0.0156250
        k(    6) = (   0.0000000   0.2500000   0.0000000), wk =   0.0234375
        k(    7) = (  -0.1250000   0.3750000  -0.1250000), wk =   0.0937500
        k(    8) = (  -0.2500000   0.5000000  -0.2500000), wk =   0.0937500
        k(    9) = (   0.6250000  -0.3750000   0.6250000), wk =   0.0937500
        k(   10) = (   0.5000000  -0.2500000   0.5000000), wk =   0.0937500
        k(   11) = (   0.3750000  -0.1250000   0.3750000), wk =   0.0937500
        k(   12) = (   0.2500000   0.0000000   0.2500000), wk =   0.0468750
        k(   13) = (   0.0000000   0.5000000   0.0000000), wk =   0.0234375
        k(   14) = (  -0.1250000   0.6250000  -0.1250000), wk =   0.0937500
        k(   15) = (   0.7500000  -0.2500000   0.7500000), wk =   0.0937500
        k(   16) = (   0.6250000  -0.1250000   0.6250000), wk =   0.0937500
        k(   17) = (   0.5000000   0.0000000   0.5000000), wk =   0.0468750
        k(   18) = (   0.0000000   0.7500000   0.0000000), wk =   0.0234375
        k(   19) = (   0.8750000  -0.1250000   0.8750000), wk =   0.0937500
        k(   20) = (   0.7500000   0.0000000   0.7500000), wk =   0.0468750
        k(   21) = (   0.0000000  -1.0000000   0.0000000), wk =   0.0117188
        k(   22) = (  -0.2500000   0.5000000   0.0000000), wk =   0.0937500
        k(   23) = (   0.6250000  -0.3750000   0.8750000), wk =   0.1875000
        k(   24) = (   0.5000000  -0.2500000   0.7500000), wk =   0.0937500
        k(   25) = (   0.7500000  -0.2500000   1.0000000), wk =   0.0937500
        k(   26) = (   0.6250000  -0.1250000   0.8750000), wk =   0.1875000
        k(   27) = (   0.5000000   0.0000000   0.7500000), wk =   0.0937500
        k(   28) = (  -0.2500000  -1.0000000   0.0000000), wk =   0.0468750
        k(   29) = (  -0.5000000  -1.0000000   0.0000000), wk =   0.0234375

     Dense  grid:    32647 G-vectors     FFT dimensions: (  45,  45,  45)

     Estimated max dynamical RAM per process >      29.07 MB

     Estimated total dynamical RAM >     514.36 MB

     Initial potential from superposition of free atoms

     starting charge       9.9998, renormalised to      10.0000


     %%%%%%%%%%%%%%%%%%%%%%%%%%%%%%%%%%%%%%%%%%%%%%%%%%%%%%%%%%%%%%%%%%%%%%%%
     %                                                                      %
     % You are using vdW-DF, which was implemented by the Thonhauser group. %
     % Please cite the following two papers that made this development      %
     % possible and the two reviews that describe the various versions:     %
     %                                                                      %
     %   T. Thonhauser et al., PRL 115, 136402 (2015).                      %
     %   T. Thonhauser et al., PRB 76, 125112 (2007).                       %
     %   K. Berland et al., Rep. Prog. Phys. 78, 066501 (2015).             %
     %   D.C. Langreth et al., J. Phys.: Condens. Matter 21, 084203 (2009). %
     %                                                                      %
     % If you are calculating stress with vdW-DF, please also cite:         %
     %                                                                      %
     %   R. Sabatini et al., J. Phys.: Condens. Matter 24, 424209 (2012).   %
     %                                                                      %
     %%%%%%%%%%%%%%%%%%%%%%%%%%%%%%%%%%%%%%%%%%%%%%%%%%%%%%%%%%%%%%%%%%%%%%%%

     %%%%%%%%%%%%%%%%%%%%%%%%%%%%%%%%%%%%%%%%%%%%%%%%%%%%%%%%%%%%%%%%%%%%%%%%
     %                                                                      %
     %  vdW-DF NEWS:                                                        %
     %                                                                      %
     %  * vdW-DF3 is now available. DOI: 10.1021/acs.jctc.0c00471           %
     %    use with input_dft = 'vdW-DF3-opt1' or 'vdW-DF3-opt2'             %
     %                                                                      %
     %  * Unscreened and range-separated vdW-DF hybrid functionals          %
     %    DOI: 10.1063/1.4986522 and 10.1088/1361-648X/ac2ad2               %
     %    use with input_dft = 'vdW-DF-cx0' (etc) and 'vdW-DF-ahcx'         %
     %                                                                      %
     %%%%%%%%%%%%%%%%%%%%%%%%%%%%%%%%%%%%%%%%%%%%%%%%%%%%%%%%%%%%%%%%%%%%%%%%


     Starting wfcs are    9 randomized atomic wfcs

     total cpu time spent up to now is       12.7 secs

     Self-consistent Calculation

     iteration #  1     ecut=   170.00 Ry     beta= 0.70
     CG style diagonalization
     ethr =  1.00E-02,  avg # of iterations =  3.6

     Threshold (ethr) on eigenvalues was too large:
     Diagonalizing with lowered threshold

     CG style diagonalization
     c_bands:  1 eigenvalues not converged
     ethr =  1.12E-04,  avg # of iterations =  5.9

     total cpu time spent up to now is       14.2 secs

     total energy              =     -66.16453051 Ry
     estimated scf accuracy    <       0.03212099 Ry

     iteration #  2     ecut=   170.00 Ry     beta= 0.70
     CG style diagonalization
     ethr =  3.21E-04,  avg # of iterations =  3.2

     total cpu time spent up to now is       15.0 secs

     total energy              =     -66.17057614 Ry
     estimated scf accuracy    <       0.00175505 Ry

     iteration #  3     ecut=   170.00 Ry     beta= 0.70
     CG style diagonalization
     ethr =  1.76E-05,  avg # of iterations =  4.7

     total cpu time spent up to now is       15.9 secs

     total energy              =     -66.17160437 Ry
     estimated scf accuracy    <       0.00013685 Ry

     iteration #  4     ecut=   170.00 Ry     beta= 0.70
     CG style diagonalization
     ethr =  1.37E-06,  avg # of iterations =  4.8

     total cpu time spent up to now is       16.8 secs

     total energy              =     -66.17167183 Ry
     estimated scf accuracy    <       0.00001491 Ry

     iteration #  5     ecut=   170.00 Ry     beta= 0.70
     CG style diagonalization
     ethr =  1.49E-07,  avg # of iterations =  4.6

     total cpu time spent up to now is       17.7 secs

     total energy              =     -66.17168956 Ry
     estimated scf accuracy    <       0.00000764 Ry

     iteration #  6     ecut=   170.00 Ry     beta= 0.70
     CG style diagonalization
     ethr =  7.64E-08,  avg # of iterations =  3.2

     total cpu time spent up to now is       18.5 secs

     total energy              =     -66.17169043 Ry
     estimated scf accuracy    <       0.00000070 Ry

     iteration #  7     ecut=   170.00 Ry     beta= 0.70
     CG style diagonalization
     ethr =  7.05E-09,  avg # of iterations =  4.1

     total cpu time spent up to now is       19.3 secs

     total energy              =     -66.17169092 Ry
     estimated scf accuracy    <          9.3E-09 Ry

     iteration #  8     ecut=   170.00 Ry     beta= 0.70
     CG style diagonalization
     ethr =  9.27E-11,  avg # of iterations =  5.6

     total cpu time spent up to now is       20.3 secs

     total energy              =     -66.17169097 Ry
     estimated scf accuracy    <          6.7E-09 Ry

     iteration #  9     ecut=   170.00 Ry     beta= 0.70
     CG style diagonalization
     ethr =  6.70E-11,  avg # of iterations =  3.4

     total cpu time spent up to now is       21.1 secs

     End of self-consistent calculation

          k = 0.0000 0.0000 0.0000 (  4015 PWs)   bands (ev):

     6.5847  12.4852  12.4852  12.4852  14.3623  14.3623  31.7398  36.2694
    36.2694

          k =-0.1250 0.1250-0.1250 (  4047 PWs)   bands (ev):

     7.1567  12.2810  12.6836  12.6836  14.2816  14.2816  32.4226  33.5337
    37.0017

          k =-0.2500 0.2500-0.2500 (  4050 PWs)   bands (ev):

     8.5111  12.2207  12.8168  12.8168  14.5477  14.5477  29.1107  33.0295
    38.1876

          k =-0.3750 0.3750-0.3750 (  4062 PWs)   bands (ev):

     9.2681  12.5623  12.5623  13.8450  15.3947  15.3947  24.3444  31.7367
    36.3191

          k = 0.5000-0.5000 0.5000 (  4092 PWs)   bands (ev):

     9.3136  12.4198  12.4198  15.8548  15.8548  15.8852  21.3316  31.1315
    35.1622

          k = 0.0000 0.2500 0.0000 (  4047 PWs)   bands (ev):

     7.3515  12.0378  12.8755  12.8755  13.8795  14.5557  32.7883  34.5562
    35.7708

          k =-0.1250 0.3750-0.1250 (  4042 PWs)   bands (ev):

     8.5066  11.6847  12.9362  13.1970  14.0233  14.8563  30.9931  33.7082
    35.1177

          k =-0.2500 0.5000-0.2500 (  4062 PWs)   bands (ev):

     9.5968  12.2051  12.4299  13.0614  15.5513  15.5596  26.0964  32.6134
    34.2106

          k = 0.6250-0.3750 0.6250 (  4053 PWs)   bands (ev):

     9.7446  12.1091  12.8187  13.6950  15.8863  17.8699  21.7463  31.6123
    34.0424

          k = 0.5000-0.2500 0.5000 (  4051 PWs)   bands (ev):

     9.7738  12.2132  12.8103  13.4919  15.2731  17.3488  23.0934  31.5320
    33.2781

          k = 0.3750-0.1250 0.3750 (  4056 PWs)   bands (ev):

     9.3976  11.9961  12.6491  13.0793  14.1944  15.8307  27.7717  32.2244
    34.6535

          k = 0.2500 0.0000 0.2500 (  4043 PWs)   bands (ev):

     8.0388  11.9488  12.8845  13.0125  13.8427  14.7554  31.7789  32.9422
    35.7149

          k = 0.0000 0.5000 0.0000 (  4064 PWs)   bands (ev):

     9.1768  11.0867  13.2200  13.9756  13.9756  15.0452  32.7915  32.7916
    33.6102

          k =-0.1250 0.6250-0.1250 (  4059 PWs)   bands (ev):

     9.9886  10.8577  12.9426  14.1865  15.6356  15.6985  28.1235  31.3472
    31.8163

          k = 0.7500-0.2500 0.7500 (  4069 PWs)   bands (ev):

    10.2944  11.3410  12.7760  13.9043  15.9685  18.8287  23.2124  29.6229
    31.3910

          k = 0.6250-0.1250 0.6250 (  4064 PWs)   bands (ev):

    10.6265  11.6628  12.6445  13.6754  15.3261  19.6881  22.8233  27.9263
    33.3828

          k = 0.5000 0.0000 0.5000 (  4069 PWs)   bands (ev):

    10.6940  11.7606  12.1202  13.5715  14.3291  17.6122  26.4742  28.3747
    34.1260

          k = 0.0000 0.7500 0.0000 (  4064 PWs)   bands (ev):

     9.7701  10.2682  15.1954  15.4456  15.4456  15.5718  28.3483  29.1565
    29.1565

          k = 0.8750-0.1250 0.8750 (  4070 PWs)   bands (ev):

     9.8659  10.2942  14.5737  15.2358  16.0865  18.7349  24.6077  27.3369
    28.7123

          k = 0.7500 0.0000 0.7500 (  4065 PWs)   bands (ev):

    10.2858  11.0022  13.3817  14.6715  15.6928  21.6547  22.4326  25.5422
    30.4600

          k = 0.0000-1.0000 0.0000 (  4088 PWs)   bands (ev):

     9.5468   9.9586  15.8025  16.2629  16.2629  18.0365  24.2074  27.5191
    27.5191

          k =-0.2500 0.5000 0.0000 (  4059 PWs)   bands (ev):

     9.7131  11.3295  12.4851  13.9814  14.0487  15.8754  29.2567  31.1782
    34.0313

          k = 0.6250-0.3750 0.8750 (  4068 PWs)   bands (ev):

    10.4685  11.7846  12.0463  13.7109  15.2022  17.7044  24.9505  29.9723
    32.1913

          k = 0.5000-0.2500 0.7500 (  4044 PWs)   bands (ev):

    10.4845  11.5886  12.8531  13.4693  15.6703  20.2605  21.1619  30.2764
    30.9776

          k = 0.7500-0.2500 1.0000 (  4069 PWs)   bands (ev):

    10.3470  10.6872  12.9765  15.0247  15.4358  17.9090  26.2491  28.1046
    29.7919

          k = 0.6250-0.1250 0.8750 (  4068 PWs)   bands (ev):

    10.6490  11.1742  12.6049  14.3863  15.9009  21.0551  22.8946  26.7845
    29.0391

          k = 0.5000 0.0000 0.7500 (  4078 PWs)   bands (ev):

    11.1838  11.4902  11.8658  14.1269  15.4448  19.8977  25.1186  25.4817
    30.6289

          k =-0.2500-1.0000 0.0000 (  4062 PWs)   bands (ev):

    10.0746  10.4345  14.0498  15.0803  16.2644  20.6955  23.3743  26.5968
    27.5285

          k =-0.5000-1.0000 0.0000 (  4056 PWs)   bands (ev):

    10.8313  11.8336  11.8336  14.0976  16.2658  22.8104  24.0405  24.0405
    27.4794

     the Fermi energy is    15.8077 ev

!    total energy              =     -66.17169097 Ry
     estimated scf accuracy    <          1.3E-10 Ry
     smearing contrib. (-TS)   =      -0.00560506 Ry
     internal energy E=F+TS    =     -66.16608590 Ry

     The total energy is F=E-TS. E is the sum of the following terms:
     one-electron contribution =      14.45344235 Ry
     hartree contribution      =       4.67756834 Ry
     xc contribution           =     -24.73888666 Ry
     ewald contribution        =     -60.55820993 Ry

     convergence has been achieved in   9 iterations

     Writing all to output data dir ./Ptbulk.save/
 
     init_run     :     12.28s CPU     12.35s WALL (       1 calls)
     electrons    :      8.18s CPU      8.44s WALL (       1 calls)

     Called by init_run:
     wfcinit      :      0.08s CPU      0.08s WALL (       1 calls)
     potinit      :     11.17s CPU     11.22s WALL (       1 calls)
     hinit0       :      0.99s CPU      1.01s WALL (       1 calls)

     Called by electrons:
     c_bands      :      3.89s CPU      3.91s WALL (      10 calls)
     sum_band     :      0.58s CPU      0.59s WALL (      10 calls)
     v_of_rho     :     13.51s CPU     13.74s WALL (      10 calls)
     newd         :      0.17s CPU      0.16s WALL (      10 calls)
     mix_rho      :      0.08s CPU      0.07s WALL (      10 calls)
     vdW_kernel   :      9.69s CPU      9.70s WALL (       1 calls)

     Called by c_bands:
     init_us_2    :      0.05s CPU      0.06s WALL (      42 calls)
     init_us_2:cp :      0.04s CPU      0.06s WALL (      42 calls)
     ccgdiagg     :      2.77s CPU      2.80s WALL (      20 calls)
     wfcrot       :      0.68s CPU      0.65s WALL (      18 calls)

     Called by *cgdiagg:
     h_psi        :      3.07s CPU      3.04s WALL (     663 calls)
     s_psi        :      0.10s CPU      0.13s WALL (    1308 calls)

     Called by h_psi:
     h_psi:calbec :      0.18s CPU      0.12s WALL (     663 calls)
     vloc_psi     :      2.79s CPU      2.82s WALL (     663 calls)
     add_vuspsi   :      0.08s CPU      0.07s WALL (     663 calls)
     hs_1psi      :      2.55s CPU      2.52s WALL (     645 calls)
     s_1psi       :      0.12s CPU      0.13s WALL (     645 calls)

     General routines
     calbec       :      0.23s CPU      0.19s WALL (    1328 calls)
     fft          :      0.98s CPU      0.98s WALL (     611 calls)
     ffts         :      0.02s CPU      0.02s WALL (      10 calls)
     fftw         :      2.78s CPU      2.74s WALL (    1794 calls)
 
     Parallel routines
 
     PWSCF        :     20.64s CPU     22.05s WALL

 
   This run was terminated on:   9:47:28  10Oct2022            

=------------------------------------------------------------------------------=
   JOB DONE.
=------------------------------------------------------------------------------=
