
     Program PWSCF v.7.1 starts on  7Oct2022 at 10:36:50 

     This program is part of the open-source Quantum ESPRESSO suite
     for quantum simulation of materials; please cite
         "P. Giannozzi et al., J. Phys.:Condens. Matter 21 395502 (2009);
         "P. Giannozzi et al., J. Phys.:Condens. Matter 29 465901 (2017);
         "P. Giannozzi et al., J. Chem. Phys. 152 154105 (2020);
          URL http://www.quantum-espresso.org", 
     in publications or presentations arising from this work. More details at
     http://www.quantum-espresso.org/quote

     Parallel version (MPI), running on    24 processors

     MPI processes distributed on     3 nodes
     93370 MiB available memory on the printing compute node when the environment starts
 
     Waiting for input...
     Reading input from standard input

     Current dimensions of program PWSCF are:
     Max number of different atomic species (ntypx) = 10
     Max number of k-points (npk) =  40000
     Max angular momentum in pseudopotentials (lmaxx) =  4
     file Pt.pbe-n-rrkjus_psl.1.0.0.UPF: wavefunction(s)  6S renormalized

     **************************************************************************
     Initializing libbeef V0.1.2 with the BEEF-vdW functional.
     Citation: Wellendorff et al., PRB 85, 235149 (2012).
     **************************************************************************


     IMPORTANT: XC functional enforced from input :
     Exchange-correlation= BEEF-VDW
                           (   1   4  43  14   2   0   0)
     Any further DFT definition will be discarded
     Please, verify this is what you really want

 
     K-points division:     npool     =      24
     Subspace diagonalization in iterative solution of the eigenvalue problem:
     a serial algorithm will be used

 
     G-vector sticks info
     --------------------
     sticks:   dense  smooth     PW     G-vecs:    dense   smooth      PW
     Sum        1261    1261    367                29603    29603    4645
 
     Using Slab Decomposition
 


     bravais-lattice index     =            2
     lattice parameter (alat)  =       7.3320  a.u.
     unit-cell volume          =      98.5388 (a.u.)^3
     number of atoms/cell      =            1
     number of atomic types    =            1
     number of electrons       =        10.00
     number of Kohn-Sham states=            9
     kinetic-energy cutoff     =     170.0000  Ry
     charge density cutoff     =     680.0000  Ry
     scf convergence threshold =      1.0E-09
     mixing beta               =       0.7000
     number of iterations used =            8  plain     mixing
     Exchange-correlation= BEEF-VDW
                           (   1   4  43  14   2   0   0)

     celldm(1)=   7.332000  celldm(2)=   0.000000  celldm(3)=   0.000000
     celldm(4)=   0.000000  celldm(5)=   0.000000  celldm(6)=   0.000000

     crystal axes: (cart. coord. in units of alat)
               a(1) = (  -0.500000   0.000000   0.500000 )  
               a(2) = (   0.000000   0.500000   0.500000 )  
               a(3) = (  -0.500000   0.500000   0.000000 )  

     reciprocal axes: (cart. coord. in units 2 pi/alat)
               b(1) = ( -1.000000 -1.000000  1.000000 )  
               b(2) = (  1.000000  1.000000  1.000000 )  
               b(3) = ( -1.000000  1.000000 -1.000000 )  


     PseudoPot. # 1 for Pt read from file:
     ./pseudo/Pt.pbe-n-rrkjus_psl.1.0.0.UPF
     MD5 check sum: 6bc887cfe28d63a5fc1f72d35a7d3ef7
     Pseudo is Ultrasoft + core correction, Zval = 10.0
     Generated using &quot;atomic&quot; code by A. Dal Corso  v.6.3
     Using radial grid of 1277 points,  6 beta functions with: 
                l(1) =   0
                l(2) =   0
                l(3) =   1
                l(4) =   1
                l(5) =   2
                l(6) =   2
     Q(r) pseudized with 0 coefficients 


     atomic species   valence    mass     pseudopotential
        Pt            10.00   195.07800     Pt( 1.00)

     48 Sym. Ops., with inversion, found



   Cartesian axes

     site n.     atom                  positions (alat units)
         1           Pt  tau(   1) = (   0.0000000   0.0000000   0.0000000  )

     number of k points=    29  Gaussian smearing, width (Ry)=  0.0200
                       cart. coord. in units 2pi/alat
        k(    1) = (   0.0000000   0.0000000   0.0000000), wk =   0.0039062
        k(    2) = (  -0.1250000   0.1250000  -0.1250000), wk =   0.0312500
        k(    3) = (  -0.2500000   0.2500000  -0.2500000), wk =   0.0312500
        k(    4) = (  -0.3750000   0.3750000  -0.3750000), wk =   0.0312500
        k(    5) = (   0.5000000  -0.5000000   0.5000000), wk =   0.0156250
        k(    6) = (   0.0000000   0.2500000   0.0000000), wk =   0.0234375
        k(    7) = (  -0.1250000   0.3750000  -0.1250000), wk =   0.0937500
        k(    8) = (  -0.2500000   0.5000000  -0.2500000), wk =   0.0937500
        k(    9) = (   0.6250000  -0.3750000   0.6250000), wk =   0.0937500
        k(   10) = (   0.5000000  -0.2500000   0.5000000), wk =   0.0937500
        k(   11) = (   0.3750000  -0.1250000   0.3750000), wk =   0.0937500
        k(   12) = (   0.2500000   0.0000000   0.2500000), wk =   0.0468750
        k(   13) = (   0.0000000   0.5000000   0.0000000), wk =   0.0234375
        k(   14) = (  -0.1250000   0.6250000  -0.1250000), wk =   0.0937500
        k(   15) = (   0.7500000  -0.2500000   0.7500000), wk =   0.0937500
        k(   16) = (   0.6250000  -0.1250000   0.6250000), wk =   0.0937500
        k(   17) = (   0.5000000   0.0000000   0.5000000), wk =   0.0468750
        k(   18) = (   0.0000000   0.7500000   0.0000000), wk =   0.0234375
        k(   19) = (   0.8750000  -0.1250000   0.8750000), wk =   0.0937500
        k(   20) = (   0.7500000   0.0000000   0.7500000), wk =   0.0468750
        k(   21) = (   0.0000000  -1.0000000   0.0000000), wk =   0.0117188
        k(   22) = (  -0.2500000   0.5000000   0.0000000), wk =   0.0937500
        k(   23) = (   0.6250000  -0.3750000   0.8750000), wk =   0.1875000
        k(   24) = (   0.5000000  -0.2500000   0.7500000), wk =   0.0937500
        k(   25) = (   0.7500000  -0.2500000   1.0000000), wk =   0.0937500
        k(   26) = (   0.6250000  -0.1250000   0.8750000), wk =   0.1875000
        k(   27) = (   0.5000000   0.0000000   0.7500000), wk =   0.0937500
        k(   28) = (  -0.2500000  -1.0000000   0.0000000), wk =   0.0468750
        k(   29) = (  -0.5000000  -1.0000000   0.0000000), wk =   0.0234375

     Dense  grid:    29603 G-vectors     FFT dimensions: (  45,  45,  45)

     Estimated max dynamical RAM per process >      27.14 MB

     Estimated total dynamical RAM >     485.16 MB

     Initial potential from superposition of free atoms

     starting charge       9.9998, renormalised to      10.0000


     %%%%%%%%%%%%%%%%%%%%%%%%%%%%%%%%%%%%%%%%%%%%%%%%%%%%%%%%%%%%%%%%%%%%%%%%
     %                                                                      %
     % You are using vdW-DF, which was implemented by the Thonhauser group. %
     % Please cite the following two papers that made this development      %
     % possible and the two reviews that describe the various versions:     %
     %                                                                      %
     %   T. Thonhauser et al., PRL 115, 136402 (2015).                      %
     %   T. Thonhauser et al., PRB 76, 125112 (2007).                       %
     %   K. Berland et al., Rep. Prog. Phys. 78, 066501 (2015).             %
     %   D.C. Langreth et al., J. Phys.: Condens. Matter 21, 084203 (2009). %
     %                                                                      %
     % If you are calculating stress with vdW-DF, please also cite:         %
     %                                                                      %
     %   R. Sabatini et al., J. Phys.: Condens. Matter 24, 424209 (2012).   %
     %                                                                      %
     %%%%%%%%%%%%%%%%%%%%%%%%%%%%%%%%%%%%%%%%%%%%%%%%%%%%%%%%%%%%%%%%%%%%%%%%

     %%%%%%%%%%%%%%%%%%%%%%%%%%%%%%%%%%%%%%%%%%%%%%%%%%%%%%%%%%%%%%%%%%%%%%%%
     %                                                                      %
     %  vdW-DF NEWS:                                                        %
     %                                                                      %
     %  * vdW-DF3 is now available. DOI: 10.1021/acs.jctc.0c00471           %
     %    use with input_dft = 'vdW-DF3-opt1' or 'vdW-DF3-opt2'             %
     %                                                                      %
     %  * Unscreened and range-separated vdW-DF hybrid functionals          %
     %    DOI: 10.1063/1.4986522 and 10.1088/1361-648X/ac2ad2               %
     %    use with input_dft = 'vdW-DF-cx0' (etc) and 'vdW-DF-ahcx'         %
     %                                                                      %
     %%%%%%%%%%%%%%%%%%%%%%%%%%%%%%%%%%%%%%%%%%%%%%%%%%%%%%%%%%%%%%%%%%%%%%%%


     Starting wfcs are    9 randomized atomic wfcs

     total cpu time spent up to now is       15.5 secs

     Self-consistent Calculation

     iteration #  1     ecut=   170.00 Ry     beta= 0.70
     CG style diagonalization
     ethr =  1.00E-02,  avg # of iterations =  3.9

     Threshold (ethr) on eigenvalues was too large:
     Diagonalizing with lowered threshold

     CG style diagonalization
     c_bands:  1 eigenvalues not converged
     ethr =  9.40E-05,  avg # of iterations =  6.4

     total cpu time spent up to now is       17.5 secs

     total energy              =     -66.15787853 Ry
     estimated scf accuracy    <       0.03008016 Ry

     iteration #  2     ecut=   170.00 Ry     beta= 0.70
     CG style diagonalization
     ethr =  3.01E-04,  avg # of iterations =  3.0

     total cpu time spent up to now is       18.3 secs

     total energy              =     -66.16235888 Ry
     estimated scf accuracy    <       0.00064463 Ry

     iteration #  3     ecut=   170.00 Ry     beta= 0.70
     CG style diagonalization
     ethr =  6.45E-06,  avg # of iterations =  6.0

     total cpu time spent up to now is       19.5 secs

     total energy              =     -66.16315502 Ry
     estimated scf accuracy    <       0.00024085 Ry

     iteration #  4     ecut=   170.00 Ry     beta= 0.70
     CG style diagonalization
     ethr =  2.41E-06,  avg # of iterations =  4.2

     total cpu time spent up to now is       20.5 secs

     total energy              =     -66.16312638 Ry
     estimated scf accuracy    <       0.00030387 Ry

     iteration #  5     ecut=   170.00 Ry     beta= 0.70
     CG style diagonalization
     ethr =  2.41E-06,  avg # of iterations =  3.4

     total cpu time spent up to now is       21.4 secs

     total energy              =     -66.16319657 Ry
     estimated scf accuracy    <       0.00000035 Ry

     iteration #  6     ecut=   170.00 Ry     beta= 0.70
     CG style diagonalization
     ethr =  3.48E-09,  avg # of iterations =  6.5

     total cpu time spent up to now is       22.6 secs

     total energy              =     -66.16320180 Ry
     estimated scf accuracy    <       0.00000083 Ry

     iteration #  7     ecut=   170.00 Ry     beta= 0.70
     CG style diagonalization
     ethr =  3.48E-09,  avg # of iterations =  3.0

     total cpu time spent up to now is       23.5 secs

     total energy              =     -66.16320133 Ry
     estimated scf accuracy    <       0.00000066 Ry

     iteration #  8     ecut=   170.00 Ry     beta= 0.70
     CG style diagonalization
     ethr =  3.48E-09,  avg # of iterations =  3.6

     total cpu time spent up to now is       24.4 secs

     total energy              =     -66.16320154 Ry
     estimated scf accuracy    <       0.00000009 Ry

     iteration #  9     ecut=   170.00 Ry     beta= 0.70
     CG style diagonalization
     ethr =  8.96E-10,  avg # of iterations =  3.5

     total cpu time spent up to now is       25.3 secs

     total energy              =     -66.16320156 Ry
     estimated scf accuracy    <          9.5E-09 Ry

     iteration # 10     ecut=   170.00 Ry     beta= 0.70
     CG style diagonalization
     ethr =  9.54E-11,  avg # of iterations =  3.5

     total cpu time spent up to now is       26.3 secs

     total energy              =     -66.16320156 Ry
     estimated scf accuracy    <          2.9E-09 Ry

     iteration # 11     ecut=   170.00 Ry     beta= 0.70
     CG style diagonalization
     ethr =  2.91E-11,  avg # of iterations =  3.9

     total cpu time spent up to now is       27.2 secs

     total energy              =     -66.16320157 Ry
     estimated scf accuracy    <          1.4E-09 Ry

     iteration # 12     ecut=   170.00 Ry     beta= 0.70
     CG style diagonalization
     ethr =  1.38E-11,  avg # of iterations =  4.4

     total cpu time spent up to now is       28.2 secs

     total energy              =     -66.16320156 Ry
     estimated scf accuracy    <       0.00000001 Ry

     iteration # 13     ecut=   170.00 Ry     beta= 0.70
     CG style diagonalization
     ethr =  1.38E-11,  avg # of iterations =  3.6

     total cpu time spent up to now is       29.2 secs

     total energy              =     -66.16320156 Ry
     estimated scf accuracy    <          2.6E-09 Ry

     iteration # 14     ecut=   170.00 Ry     beta= 0.70
     CG style diagonalization
     ethr =  1.38E-11,  avg # of iterations =  3.4

     total cpu time spent up to now is       30.1 secs

     End of self-consistent calculation

          k = 0.0000 0.0000 0.0000 (  3695 PWs)   bands (ev):

     7.9065  14.2931  14.2931  14.2931  16.5039  16.5039  34.0320  39.1479
    39.1480

          k =-0.1250 0.1250-0.1250 (  3704 PWs)   bands (ev):

     8.5331  14.0480  14.5225  14.5225  16.4019  16.4019  34.9111  36.3368
    40.0469

          k =-0.2500 0.2500-0.2500 (  3693 PWs)   bands (ev):

     9.9770  13.9765  14.6747  14.6747  16.7050  16.7050  32.1756  35.6671
    41.8350

          k =-0.3750 0.3750-0.3750 (  3693 PWs)   bands (ev):

    10.6956  14.3749  14.3749  15.7836  17.7082  17.7082  27.4727  34.1428
    39.7771

          k = 0.5000-0.5000 0.5000 (  3708 PWs)   bands (ev):

    10.7101  14.2081  14.2081  17.8877  18.2612  18.2612  24.4553  33.4297
    38.4141

          k = 0.0000 0.2500 0.0000 (  3683 PWs)   bands (ev):

     8.7468  13.7620  14.7458  14.7458  15.9200  16.7301  35.2940  37.3566
    38.9132

          k =-0.1250 0.3750-0.1250 (  3683 PWs)   bands (ev):

     9.9931  13.3485  14.8058  15.1188  16.0814  17.0786  34.0698  36.4796
    38.5558

          k =-0.2500 0.5000-0.2500 (  3698 PWs)   bands (ev):

    11.0884  13.9536  14.2174  14.9572  17.8392  17.9091  29.2356  35.2522
    37.6455

          k = 0.6250-0.3750 0.6250 (  3697 PWs)   bands (ev):

    11.1941  13.8320  14.6711  15.6421  18.2988  20.3335  24.7961  34.1750
    37.3485

          k = 0.5000-0.2500 0.5000 (  3693 PWs)   bands (ev):

    11.2395  13.9561  14.6602  15.4059  17.5603  19.8726  26.1682  34.2690
    36.3931

          k = 0.3750-0.1250 0.3750 (  3692 PWs)   bands (ev):

    10.9194  13.7200  14.4641  14.9757  16.2820  18.2104  30.9173  35.2933
    37.7770

          k = 0.2500 0.0000 0.2500 (  3681 PWs)   bands (ev):

     9.4928  13.6561  14.7520  14.9029  15.8744  16.9568  34.6891  35.8430
    38.7718

          k = 0.0000 0.5000 0.0000 (  3655 PWs)   bands (ev):

    10.6911  12.6507  15.1355  16.0261  16.0261  17.3058  36.1229  36.1230
    36.5111

          k =-0.1250 0.6250-0.1250 (  3675 PWs)   bands (ev):

    11.4904  12.3932  14.8198  16.2730  18.0026  18.0039  31.2896  34.5701
    35.0918

          k = 0.7500-0.2500 0.7500 (  3685 PWs)   bands (ev):

    11.7756  12.9420  14.6252  15.9380  18.3972  21.4828  26.1156  32.9090
    34.5967

          k = 0.6250-0.1250 0.6250 (  3680 PWs)   bands (ev):

    12.1643  13.3106  14.4594  15.6666  17.6224  22.3940  25.8332  31.1524
    36.8133

          k = 0.5000 0.0000 0.5000 (  3669 PWs)   bands (ev):

    12.3139  13.4425  13.8345  15.5440  16.4409  20.2346  29.5632  31.7244
    36.9421

          k = 0.0000 0.7500 0.0000 (  3679 PWs)   bands (ev):

    11.1792  11.7090  17.3166  17.7591  17.7591  17.9303  31.8644  32.1514
    32.1514

          k = 0.8750-0.1250 0.8750 (  3687 PWs)   bands (ev):

    11.2569  11.7445  16.6803  17.5161  18.5368  21.3021  27.6626  30.4978
    31.6494

          k = 0.7500 0.0000 0.7500 (  3703 PWs)   bands (ev):

    11.7314  12.5628  15.3108  16.8397  18.0602  24.4556  25.2953  28.7610
    33.6201

          k = 0.0000-1.0000 0.0000 (  3692 PWs)   bands (ev):

    10.8894  11.3555  18.2058  18.7460  18.7461  20.2554  27.6343  30.2922
    30.2922

          k =-0.2500 0.5000 0.0000 (  3685 PWs)   bands (ev):

    11.2787  12.9364  14.2714  16.0324  16.1071  18.2639  32.3996  34.5842
    37.1074

          k = 0.6250-0.3750 0.8750 (  3682 PWs)   bands (ev):

    12.0196  13.4481  13.7845  15.7089  17.4677  20.3057  28.0123  33.2546
    35.2545

          k = 0.5000-0.2500 0.7500 (  3674 PWs)   bands (ev):

    12.0184  13.2164  14.6944  15.4263  18.0336  22.9014  24.1623  33.6328
    34.0187

          k = 0.7500-0.2500 1.0000 (  3683 PWs)   bands (ev):

    11.8274  12.1981  14.8561  17.2506  17.7482  20.5031  29.3256  31.1974
    33.0691

          k = 0.6250-0.1250 0.8750 (  3697 PWs)   bands (ev):

    12.1481  12.7616  14.4218  16.4969  18.3077  23.9260  25.7359  29.9878
    32.2089

          k = 0.5000 0.0000 0.7500 (  3693 PWs)   bands (ev):

    12.7548  13.1496  13.5660  16.1909  17.7610  22.6569  28.2160  28.5683
    33.8978

          k =-0.2500-1.0000 0.0000 (  3690 PWs)   bands (ev):

    11.4861  11.9093  16.0794  17.3251  18.7479  23.3475  26.5431  29.4661
    30.6202

          k =-0.5000-1.0000 0.0000 (  3704 PWs)   bands (ev):

    12.3421  13.5291  13.5291  16.1536  18.7498  25.9053  26.9289  26.9289
    30.6770

     the Fermi energy is    18.1819 ev

!    total energy              =     -66.16320156 Ry
     estimated scf accuracy    <          6.2E-11 Ry
     smearing contrib. (-TS)   =      -0.00474055 Ry
     internal energy E=F+TS    =     -66.15846102 Ry

     The total energy is F=E-TS. E is the sum of the following terms:
     one-electron contribution =      17.11959750 Ry
     hartree contribution      =       4.08989734 Ry
     xc contribution           =     -24.83573990 Ry
     ewald contribution        =     -62.53221596 Ry

     convergence has been achieved in  14 iterations

     Writing all to output data dir ./Ptbulk.save/
 
     init_run     :     15.04s CPU     15.08s WALL (       1 calls)
     electrons    :     14.06s CPU     14.62s WALL (       1 calls)

     Called by init_run:
     wfcinit      :      0.09s CPU      0.10s WALL (       1 calls)
     potinit      :     13.67s CPU     13.70s WALL (       1 calls)
     hinit0       :      1.24s CPU      1.24s WALL (       1 calls)

     Called by electrons:
     c_bands      :      6.53s CPU      6.53s WALL (      15 calls)
     sum_band     :      1.04s CPU      1.05s WALL (      15 calls)
     v_of_rho     :     18.52s CPU     19.00s WALL (      15 calls)
     newd         :      0.26s CPU      0.24s WALL (      15 calls)
     mix_rho      :      0.12s CPU      0.16s WALL (      15 calls)
     vdW_kernel   :     11.99s CPU     11.99s WALL (       1 calls)

     Called by c_bands:
     init_us_2    :      0.08s CPU      0.10s WALL (      62 calls)
     init_us_2:cp :      0.08s CPU      0.10s WALL (      62 calls)
     ccgdiagg     :      4.63s CPU      4.67s WALL (      30 calls)
     wfcrot       :      1.26s CPU      1.22s WALL (      28 calls)

     Called by *cgdiagg:
     h_psi        :      5.34s CPU      5.30s WALL (     948 calls)
     s_psi        :      0.16s CPU      0.20s WALL (    1868 calls)

     Called by h_psi:
     h_psi:calbec :      0.09s CPU      0.16s WALL (     948 calls)
     vloc_psi     :      5.13s CPU      5.00s WALL (     948 calls)
     add_vuspsi   :      0.09s CPU      0.11s WALL (     948 calls)
     hs_1psi      :      4.27s CPU      4.27s WALL (     920 calls)
     s_1psi       :      0.17s CPU      0.19s WALL (     920 calls)

     General routines
     calbec       :      0.22s CPU      0.27s WALL (    1898 calls)
     fft          :      1.87s CPU      1.80s WALL (     916 calls)
     ffts         :      0.00s CPU      0.03s WALL (      15 calls)
     fftw         :      5.16s CPU      4.92s WALL (    2614 calls)
 
     Parallel routines
 
     PWSCF        :     29.32s CPU     31.96s WALL

 
   This run was terminated on:  10:37:22   7Oct2022            

=------------------------------------------------------------------------------=
   JOB DONE.
=------------------------------------------------------------------------------=
