
     Program PWSCF v.7.1 starts on  7Oct2022 at 11: 1:52 

     This program is part of the open-source Quantum ESPRESSO suite
     for quantum simulation of materials; please cite
         "P. Giannozzi et al., J. Phys.:Condens. Matter 21 395502 (2009);
         "P. Giannozzi et al., J. Phys.:Condens. Matter 29 465901 (2017);
         "P. Giannozzi et al., J. Chem. Phys. 152 154105 (2020);
          URL http://www.quantum-espresso.org", 
     in publications or presentations arising from this work. More details at
     http://www.quantum-espresso.org/quote

     Parallel version (MPI), running on    24 processors

     MPI processes distributed on     3 nodes
     87920 MiB available memory on the printing compute node when the environment starts
 
     Waiting for input...
     Reading input from standard input

     Current dimensions of program PWSCF are:
     Max number of different atomic species (ntypx) = 10
     Max number of k-points (npk) =  40000
     Max angular momentum in pseudopotentials (lmaxx) =  4
     file Pt.pbe-n-rrkjus_psl.1.0.0.UPF: wavefunction(s)  6S renormalized

     **************************************************************************
     Initializing libbeef V0.1.2 with the BEEF-vdW functional.
     Citation: Wellendorff et al., PRB 85, 235149 (2012).
     **************************************************************************


     IMPORTANT: XC functional enforced from input :
     Exchange-correlation= BEEF-VDW
                           (   1   4  43  14   2   0   0)
     Any further DFT definition will be discarded
     Please, verify this is what you really want

 
     K-points division:     npool     =      24
     Subspace diagonalization in iterative solution of the eigenvalue problem:
     a serial algorithm will be used

 
     G-vector sticks info
     --------------------
     sticks:   dense  smooth     PW     G-vecs:    dense   smooth      PW
     Sum        1345    1345    379                32455    32455    5029
 
     Using Slab Decomposition
 


     bravais-lattice index     =            2
     lattice parameter (alat)  =       7.5600  a.u.
     unit-cell volume          =     108.0203 (a.u.)^3
     number of atoms/cell      =            1
     number of atomic types    =            1
     number of electrons       =        10.00
     number of Kohn-Sham states=            9
     kinetic-energy cutoff     =     170.0000  Ry
     charge density cutoff     =     680.0000  Ry
     scf convergence threshold =      1.0E-09
     mixing beta               =       0.7000
     number of iterations used =            8  plain     mixing
     Exchange-correlation= BEEF-VDW
                           (   1   4  43  14   2   0   0)

     celldm(1)=   7.560000  celldm(2)=   0.000000  celldm(3)=   0.000000
     celldm(4)=   0.000000  celldm(5)=   0.000000  celldm(6)=   0.000000

     crystal axes: (cart. coord. in units of alat)
               a(1) = (  -0.500000   0.000000   0.500000 )  
               a(2) = (   0.000000   0.500000   0.500000 )  
               a(3) = (  -0.500000   0.500000   0.000000 )  

     reciprocal axes: (cart. coord. in units 2 pi/alat)
               b(1) = ( -1.000000 -1.000000  1.000000 )  
               b(2) = (  1.000000  1.000000  1.000000 )  
               b(3) = ( -1.000000  1.000000 -1.000000 )  


     PseudoPot. # 1 for Pt read from file:
     ./pseudo/Pt.pbe-n-rrkjus_psl.1.0.0.UPF
     MD5 check sum: 6bc887cfe28d63a5fc1f72d35a7d3ef7
     Pseudo is Ultrasoft + core correction, Zval = 10.0
     Generated using &quot;atomic&quot; code by A. Dal Corso  v.6.3
     Using radial grid of 1277 points,  6 beta functions with: 
                l(1) =   0
                l(2) =   0
                l(3) =   1
                l(4) =   1
                l(5) =   2
                l(6) =   2
     Q(r) pseudized with 0 coefficients 


     atomic species   valence    mass     pseudopotential
        Pt            10.00   195.07800     Pt( 1.00)

     48 Sym. Ops., with inversion, found



   Cartesian axes

     site n.     atom                  positions (alat units)
         1           Pt  tau(   1) = (   0.0000000   0.0000000   0.0000000  )

     number of k points=    29  Gaussian smearing, width (Ry)=  0.0200
                       cart. coord. in units 2pi/alat
        k(    1) = (   0.0000000   0.0000000   0.0000000), wk =   0.0039062
        k(    2) = (  -0.1250000   0.1250000  -0.1250000), wk =   0.0312500
        k(    3) = (  -0.2500000   0.2500000  -0.2500000), wk =   0.0312500
        k(    4) = (  -0.3750000   0.3750000  -0.3750000), wk =   0.0312500
        k(    5) = (   0.5000000  -0.5000000   0.5000000), wk =   0.0156250
        k(    6) = (   0.0000000   0.2500000   0.0000000), wk =   0.0234375
        k(    7) = (  -0.1250000   0.3750000  -0.1250000), wk =   0.0937500
        k(    8) = (  -0.2500000   0.5000000  -0.2500000), wk =   0.0937500
        k(    9) = (   0.6250000  -0.3750000   0.6250000), wk =   0.0937500
        k(   10) = (   0.5000000  -0.2500000   0.5000000), wk =   0.0937500
        k(   11) = (   0.3750000  -0.1250000   0.3750000), wk =   0.0937500
        k(   12) = (   0.2500000   0.0000000   0.2500000), wk =   0.0468750
        k(   13) = (   0.0000000   0.5000000   0.0000000), wk =   0.0234375
        k(   14) = (  -0.1250000   0.6250000  -0.1250000), wk =   0.0937500
        k(   15) = (   0.7500000  -0.2500000   0.7500000), wk =   0.0937500
        k(   16) = (   0.6250000  -0.1250000   0.6250000), wk =   0.0937500
        k(   17) = (   0.5000000   0.0000000   0.5000000), wk =   0.0468750
        k(   18) = (   0.0000000   0.7500000   0.0000000), wk =   0.0234375
        k(   19) = (   0.8750000  -0.1250000   0.8750000), wk =   0.0937500
        k(   20) = (   0.7500000   0.0000000   0.7500000), wk =   0.0468750
        k(   21) = (   0.0000000  -1.0000000   0.0000000), wk =   0.0117188
        k(   22) = (  -0.2500000   0.5000000   0.0000000), wk =   0.0937500
        k(   23) = (   0.6250000  -0.3750000   0.8750000), wk =   0.1875000
        k(   24) = (   0.5000000  -0.2500000   0.7500000), wk =   0.0937500
        k(   25) = (   0.7500000  -0.2500000   1.0000000), wk =   0.0937500
        k(   26) = (   0.6250000  -0.1250000   0.8750000), wk =   0.1875000
        k(   27) = (   0.5000000   0.0000000   0.7500000), wk =   0.0937500
        k(   28) = (  -0.2500000  -1.0000000   0.0000000), wk =   0.0468750
        k(   29) = (  -0.5000000  -1.0000000   0.0000000), wk =   0.0234375

     Dense  grid:    32455 G-vectors     FFT dimensions: (  45,  45,  45)

     Estimated max dynamical RAM per process >      28.95 MB

     Estimated total dynamical RAM >     512.61 MB

     Initial potential from superposition of free atoms

     starting charge       9.9998, renormalised to      10.0000


     %%%%%%%%%%%%%%%%%%%%%%%%%%%%%%%%%%%%%%%%%%%%%%%%%%%%%%%%%%%%%%%%%%%%%%%%
     %                                                                      %
     % You are using vdW-DF, which was implemented by the Thonhauser group. %
     % Please cite the following two papers that made this development      %
     % possible and the two reviews that describe the various versions:     %
     %                                                                      %
     %   T. Thonhauser et al., PRL 115, 136402 (2015).                      %
     %   T. Thonhauser et al., PRB 76, 125112 (2007).                       %
     %   K. Berland et al., Rep. Prog. Phys. 78, 066501 (2015).             %
     %   D.C. Langreth et al., J. Phys.: Condens. Matter 21, 084203 (2009). %
     %                                                                      %
     % If you are calculating stress with vdW-DF, please also cite:         %
     %                                                                      %
     %   R. Sabatini et al., J. Phys.: Condens. Matter 24, 424209 (2012).   %
     %                                                                      %
     %%%%%%%%%%%%%%%%%%%%%%%%%%%%%%%%%%%%%%%%%%%%%%%%%%%%%%%%%%%%%%%%%%%%%%%%

     %%%%%%%%%%%%%%%%%%%%%%%%%%%%%%%%%%%%%%%%%%%%%%%%%%%%%%%%%%%%%%%%%%%%%%%%
     %                                                                      %
     %  vdW-DF NEWS:                                                        %
     %                                                                      %
     %  * vdW-DF3 is now available. DOI: 10.1021/acs.jctc.0c00471           %
     %    use with input_dft = 'vdW-DF3-opt1' or 'vdW-DF3-opt2'             %
     %                                                                      %
     %  * Unscreened and range-separated vdW-DF hybrid functionals          %
     %    DOI: 10.1063/1.4986522 and 10.1088/1361-648X/ac2ad2               %
     %    use with input_dft = 'vdW-DF-cx0' (etc) and 'vdW-DF-ahcx'         %
     %                                                                      %
     %%%%%%%%%%%%%%%%%%%%%%%%%%%%%%%%%%%%%%%%%%%%%%%%%%%%%%%%%%%%%%%%%%%%%%%%


     Starting wfcs are    9 randomized atomic wfcs

     total cpu time spent up to now is       14.7 secs

     Self-consistent Calculation

     iteration #  1     ecut=   170.00 Ry     beta= 0.70
     CG style diagonalization
     ethr =  1.00E-02,  avg # of iterations =  3.6

     Threshold (ethr) on eigenvalues was too large:
     Diagonalizing with lowered threshold

     CG style diagonalization
     ethr =  1.09E-04,  avg # of iterations =  5.9

     total cpu time spent up to now is       16.5 secs

     total energy              =     -66.16456304 Ry
     estimated scf accuracy    <       0.03211984 Ry

     iteration #  2     ecut=   170.00 Ry     beta= 0.70
     CG style diagonalization
     ethr =  3.21E-04,  avg # of iterations =  3.1

     total cpu time spent up to now is       17.3 secs

     total energy              =     -66.17055957 Ry
     estimated scf accuracy    <       0.00160624 Ry

     iteration #  3     ecut=   170.00 Ry     beta= 0.70
     CG style diagonalization
     ethr =  1.61E-05,  avg # of iterations =  4.7

     total cpu time spent up to now is       18.4 secs

     total energy              =     -66.17159167 Ry
     estimated scf accuracy    <       0.00015687 Ry

     iteration #  4     ecut=   170.00 Ry     beta= 0.70
     CG style diagonalization
     ethr =  1.57E-06,  avg # of iterations =  4.5

     total cpu time spent up to now is       19.4 secs

     total energy              =     -66.17163653 Ry
     estimated scf accuracy    <       0.00004642 Ry

     iteration #  5     ecut=   170.00 Ry     beta= 0.70
     CG style diagonalization
     ethr =  4.64E-07,  avg # of iterations =  3.9

     total cpu time spent up to now is       20.4 secs

     total energy              =     -66.17166433 Ry
     estimated scf accuracy    <       0.00000667 Ry

     iteration #  6     ecut=   170.00 Ry     beta= 0.70
     CG style diagonalization
     ethr =  6.67E-08,  avg # of iterations =  3.8

     total cpu time spent up to now is       21.3 secs

     total energy              =     -66.17166678 Ry
     estimated scf accuracy    <       0.00000144 Ry

     iteration #  7     ecut=   170.00 Ry     beta= 0.70
     CG style diagonalization
     ethr =  1.44E-08,  avg # of iterations =  4.0

     total cpu time spent up to now is       22.3 secs

     total energy              =     -66.17166730 Ry
     estimated scf accuracy    <       0.00000207 Ry

     iteration #  8     ecut=   170.00 Ry     beta= 0.70
     CG style diagonalization
     ethr =  1.44E-08,  avg # of iterations =  3.3

     total cpu time spent up to now is       23.2 secs

     total energy              =     -66.17166769 Ry
     estimated scf accuracy    <       0.00000003 Ry

     iteration #  9     ecut=   170.00 Ry     beta= 0.70
     CG style diagonalization
     ethr =  2.52E-10,  avg # of iterations =  5.1

     total cpu time spent up to now is       24.3 secs

     total energy              =     -66.17166775 Ry
     estimated scf accuracy    <          1.1E-09 Ry

     iteration # 10     ecut=   170.00 Ry     beta= 0.70
     CG style diagonalization
     ethr =  1.09E-11,  avg # of iterations =  4.6

     total cpu time spent up to now is       25.3 secs

     total energy              =     -66.17166776 Ry
     estimated scf accuracy    <          3.4E-09 Ry

     iteration # 11     ecut=   170.00 Ry     beta= 0.70
     CG style diagonalization
     ethr =  1.09E-11,  avg # of iterations =  3.1

     total cpu time spent up to now is       26.2 secs

     total energy              =     -66.17166776 Ry
     estimated scf accuracy    <          4.8E-09 Ry

     iteration # 12     ecut=   170.00 Ry     beta= 0.70
     CG style diagonalization
     ethr =  1.09E-11,  avg # of iterations =  3.0

     total cpu time spent up to now is       27.1 secs

     total energy              =     -66.17166776 Ry
     estimated scf accuracy    <          2.5E-09 Ry

     iteration # 13     ecut=   170.00 Ry     beta= 0.70
     CG style diagonalization
     ethr =  1.09E-11,  avg # of iterations =  3.0

     total cpu time spent up to now is       27.9 secs

     End of self-consistent calculation

          k = 0.0000 0.0000 0.0000 (  4015 PWs)   bands (ev):

     6.6413  12.5635  12.5635  12.5635  14.4546  14.4546  31.8404  36.3963
    36.3963

          k =-0.1250 0.1250-0.1250 (  4020 PWs)   bands (ev):

     7.2156  12.3576  12.7632  12.7632  14.3730  14.3730  32.5327  33.6566
    37.1361

          k =-0.2500 0.2500-0.2500 (  4020 PWs)   bands (ev):

     8.5741  12.2966  12.8972  12.8972  14.6407  14.6407  29.2457  33.1432
    38.3477

          k =-0.3750 0.3750-0.3750 (  4044 PWs)   bands (ev):

     9.3299  12.6408  12.6408  13.9283  15.4942  15.4942  24.4793  31.8416
    36.4703

          k = 0.5000-0.5000 0.5000 (  4044 PWs)   bands (ev):

     9.3741  12.4973  12.4973  15.9582  15.9582  15.9709  21.4658  31.2322
    35.3046

          k = 0.0000 0.2500 0.0000 (  4023 PWs)   bands (ev):

     7.4112  12.1126  12.9564  12.9564  13.9677  14.6493  32.8983  34.6794
    35.9095

          k =-0.1250 0.3750-0.1250 (  4026 PWs)   bands (ev):

     8.5704  11.7569  13.0172  13.2801  14.1122  14.9520  31.1287  33.8286
    35.2677

          k =-0.2500 0.5000-0.2500 (  4046 PWs)   bands (ev):

     9.6612  12.2807  12.5073  13.1434  15.6497  15.6606  26.2322  32.7284
    34.3599

          k = 0.6250-0.3750 0.6250 (  4033 PWs)   bands (ev):

     9.8074  12.1839  12.8989  13.7789  15.9899  17.9755  21.8773  31.7254
    34.1865

          k = 0.5000-0.2500 0.5000 (  4041 PWs)   bands (ev):

     9.8373  12.2888  12.8904  13.5743  15.3716  17.4571  23.2255  31.6546
    33.4108

          k = 0.3750-0.1250 0.3750 (  4036 PWs)   bands (ev):

     9.4631  12.0706  12.7277  13.1613  14.2845  15.9330  27.9086  32.3599
    34.7867

          k = 0.2500 0.0000 0.2500 (  4019 PWs)   bands (ev):

     8.1011  12.0229  12.9653  13.0942  13.9305  14.8503  31.9075  33.0710
    35.8471

          k = 0.0000 0.5000 0.0000 (  4016 PWs)   bands (ev):

     9.2418  11.1547  13.3027  14.0641  14.0641  15.1425  32.9363  32.9363
    33.7368

          k =-0.1250 0.6250-0.1250 (  4050 PWs)   bands (ev):

    10.0535  10.9244  13.0236  14.2765  15.7374  15.7977  28.2608  31.4869
    31.9596

          k = 0.7500-0.2500 0.7500 (  4046 PWs)   bands (ev):

    10.3587  11.4104  12.8557  13.9921  16.0728  18.9428  23.3376  29.7656
    31.5300

          k = 0.6250-0.1250 0.6250 (  4045 PWs)   bands (ev):

    10.6932  11.7342  12.7227  13.7615  15.4250  19.8047  22.9525  28.0656
    33.5316

          k = 0.5000 0.0000 0.5000 (  4025 PWs)   bands (ev):

    10.7637  11.8334  12.1945  13.6568  14.4203  17.7248  26.6080  28.5187
    34.2491

          k = 0.0000 0.7500 0.0000 (  4064 PWs)   bands (ev):

     9.8313  10.3309  15.2866  15.5452  15.5452  15.6732  28.5000  29.2863
    29.2863

          k = 0.8750-0.1250 0.8750 (  4048 PWs)   bands (ev):

     9.9265  10.3572  14.6645  15.3339  16.1917  18.8449  24.7408  27.4720
    28.8395

          k = 0.7500 0.0000 0.7500 (  4041 PWs)   bands (ev):

    10.3487  11.0698  13.4649  14.7650  15.7946  21.7764  22.5551  25.6803
    30.5968

          k = 0.0000-1.0000 0.0000 (  4088 PWs)   bands (ev):

     9.6053  10.0194  15.9057  16.3695  16.3695  18.1315  24.3548  27.6394
    27.6394

          k =-0.2500 0.5000 0.0000 (  4041 PWs)   bands (ev):

     9.7803  11.3993  12.5625  14.0699  14.1376  15.9780  29.3938  31.3254
    34.1655

          k = 0.6250-0.3750 0.8750 (  4050 PWs)   bands (ev):

    10.5355  11.8568  12.1214  13.7973  15.2997  17.8160  25.0826  30.1144
    32.3256

          k = 0.5000-0.2500 0.7500 (  4044 PWs)   bands (ev):

    10.5509  11.6593  12.9325  13.5539  15.7719  20.3736  21.2912  30.4217
    31.1104

          k = 0.7500-0.2500 1.0000 (  4044 PWs)   bands (ev):

    10.4112  10.7528  13.0576  15.1206  15.5353  18.0203  26.3826  28.2382
    29.9334

          k = 0.6250-0.1250 0.8750 (  4049 PWs)   bands (ev):

    10.7142  11.2430  12.6833  14.4774  16.0043  21.1787  23.0171  26.9225
    29.1760

          k = 0.5000 0.0000 0.7500 (  4050 PWs)   bands (ev):

    11.2521  11.5618  11.9393  14.2160  15.5445  20.0165  25.2522  25.6143
    30.7705

          k =-0.2500-1.0000 0.0000 (  4054 PWs)   bands (ev):

    10.1360  10.4986  14.1373  15.1770  16.3709  20.8090  23.5116  26.7210
    27.6614

          k =-0.5000-1.0000 0.0000 (  4056 PWs)   bands (ev):

    10.8969  11.9069  11.9069  14.1865  16.3724  22.9441  24.1648  24.1648
    27.6170

     the Fermi energy is    15.9097 ev

!    total energy              =     -66.17166776 Ry
     estimated scf accuracy    <          7.1E-10 Ry
     smearing contrib. (-TS)   =      -0.00557113 Ry
     internal energy E=F+TS    =     -66.16609663 Ry

     The total energy is F=E-TS. E is the sum of the following terms:
     one-electron contribution =      14.57321203 Ry
     hartree contribution      =       4.64981803 Ry
     xc contribution           =     -24.74280296 Ry
     ewald contribution        =     -60.64632373 Ry

     convergence has been achieved in  13 iterations

     Writing all to output data dir ./Ptbulk.save/
 
     init_run     :     14.37s CPU     14.41s WALL (       1 calls)
     electrons    :     12.87s CPU     13.22s WALL (       1 calls)

     Called by init_run:
     wfcinit      :      0.10s CPU      0.09s WALL (       1 calls)
     potinit      :     13.05s CPU     13.09s WALL (       1 calls)
     hinit0       :      1.16s CPU      1.17s WALL (       1 calls)

     Called by electrons:
     c_bands      :      5.79s CPU      5.78s WALL (      14 calls)
     sum_band     :      0.98s CPU      0.98s WALL (      14 calls)
     v_of_rho     :     17.38s CPU     17.73s WALL (      14 calls)
     newd         :      0.31s CPU      0.30s WALL (      14 calls)
     mix_rho      :      0.14s CPU      0.14s WALL (      14 calls)
     vdW_kernel   :     11.32s CPU     11.33s WALL (       1 calls)

     Called by c_bands:
     init_us_2    :      0.08s CPU      0.10s WALL (      58 calls)
     init_us_2:cp :      0.08s CPU      0.10s WALL (      58 calls)
     ccgdiagg     :      4.06s CPU      4.06s WALL (      28 calls)
     wfcrot       :      1.11s CPU      1.10s WALL (      26 calls)

     Called by *cgdiagg:
     h_psi        :      4.72s CPU      4.56s WALL (     821 calls)
     s_psi        :      0.16s CPU      0.19s WALL (    1616 calls)

     Called by h_psi:
     h_psi:calbec :      0.11s CPU      0.16s WALL (     821 calls)
     vloc_psi     :      4.48s CPU      4.25s WALL (     821 calls)
     add_vuspsi   :      0.09s CPU      0.11s WALL (     821 calls)
     hs_1psi      :      3.79s CPU      3.65s WALL (     795 calls)
     s_1psi       :      0.17s CPU      0.19s WALL (     795 calls)

     General routines
     calbec       :      0.26s CPU      0.27s WALL (    1644 calls)
     fft          :      1.69s CPU      1.61s WALL (     855 calls)
     ffts         :      0.02s CPU      0.02s WALL (      14 calls)
     fftw         :      4.33s CPU      4.13s WALL (    2310 calls)
 
     Parallel routines
 
     PWSCF        :     27.44s CPU     29.10s WALL

 
   This run was terminated on:  11: 2:21   7Oct2022            

=------------------------------------------------------------------------------=
   JOB DONE.
=------------------------------------------------------------------------------=
