
     Program PWSCF v.7.1 starts on  7Oct2022 at 10:19:54 

     This program is part of the open-source Quantum ESPRESSO suite
     for quantum simulation of materials; please cite
         "P. Giannozzi et al., J. Phys.:Condens. Matter 21 395502 (2009);
         "P. Giannozzi et al., J. Phys.:Condens. Matter 29 465901 (2017);
         "P. Giannozzi et al., J. Chem. Phys. 152 154105 (2020);
          URL http://www.quantum-espresso.org", 
     in publications or presentations arising from this work. More details at
     http://www.quantum-espresso.org/quote

     Parallel version (MPI), running on    24 processors

     MPI processes distributed on     3 nodes
     74934 MiB available memory on the printing compute node when the environment starts
 
     Waiting for input...
     Reading input from standard input

     Current dimensions of program PWSCF are:
     Max number of different atomic species (ntypx) = 10
     Max number of k-points (npk) =  40000
     Max angular momentum in pseudopotentials (lmaxx) =  4
     file Pt.pbe-n-rrkjus_psl.1.0.0.UPF: wavefunction(s)  6S renormalized

     **************************************************************************
     Initializing libbeef V0.1.2 with the BEEF-vdW functional.
     Citation: Wellendorff et al., PRB 85, 235149 (2012).
     **************************************************************************


     IMPORTANT: XC functional enforced from input :
     Exchange-correlation= BEEF-VDW
                           (   1   4  43  14   2   0   0)
     Any further DFT definition will be discarded
     Please, verify this is what you really want

 
     K-points division:     npool     =      24
     Subspace diagonalization in iterative solution of the eigenvalue problem:
     a serial algorithm will be used

 
     G-vector sticks info
     --------------------
     sticks:   dense  smooth     PW     G-vecs:    dense   smooth      PW
     Sum        1285    1285    379                30395    30395    4909
 
     Using Slab Decomposition
 


     bravais-lattice index     =            2
     lattice parameter (alat)  =       7.3960  a.u.
     unit-cell volume          =     101.1418 (a.u.)^3
     number of atoms/cell      =            1
     number of atomic types    =            1
     number of electrons       =        10.00
     number of Kohn-Sham states=            9
     kinetic-energy cutoff     =     170.0000  Ry
     charge density cutoff     =     680.0000  Ry
     scf convergence threshold =      1.0E-09
     mixing beta               =       0.7000
     number of iterations used =            8  plain     mixing
     Exchange-correlation= BEEF-VDW
                           (   1   4  43  14   2   0   0)

     celldm(1)=   7.396000  celldm(2)=   0.000000  celldm(3)=   0.000000
     celldm(4)=   0.000000  celldm(5)=   0.000000  celldm(6)=   0.000000

     crystal axes: (cart. coord. in units of alat)
               a(1) = (  -0.500000   0.000000   0.500000 )  
               a(2) = (   0.000000   0.500000   0.500000 )  
               a(3) = (  -0.500000   0.500000   0.000000 )  

     reciprocal axes: (cart. coord. in units 2 pi/alat)
               b(1) = ( -1.000000 -1.000000  1.000000 )  
               b(2) = (  1.000000  1.000000  1.000000 )  
               b(3) = ( -1.000000  1.000000 -1.000000 )  


     PseudoPot. # 1 for Pt read from file:
     ./pseudo/Pt.pbe-n-rrkjus_psl.1.0.0.UPF
     MD5 check sum: 6bc887cfe28d63a5fc1f72d35a7d3ef7
     Pseudo is Ultrasoft + core correction, Zval = 10.0
     Generated using &quot;atomic&quot; code by A. Dal Corso  v.6.3
     Using radial grid of 1277 points,  6 beta functions with: 
                l(1) =   0
                l(2) =   0
                l(3) =   1
                l(4) =   1
                l(5) =   2
                l(6) =   2
     Q(r) pseudized with 0 coefficients 


     atomic species   valence    mass     pseudopotential
        Pt            10.00   195.07800     Pt( 1.00)

     48 Sym. Ops., with inversion, found



   Cartesian axes

     site n.     atom                  positions (alat units)
         1           Pt  tau(   1) = (   0.0000000   0.0000000   0.0000000  )

     number of k points=    29  Gaussian smearing, width (Ry)=  0.0200
                       cart. coord. in units 2pi/alat
        k(    1) = (   0.0000000   0.0000000   0.0000000), wk =   0.0039062
        k(    2) = (  -0.1250000   0.1250000  -0.1250000), wk =   0.0312500
        k(    3) = (  -0.2500000   0.2500000  -0.2500000), wk =   0.0312500
        k(    4) = (  -0.3750000   0.3750000  -0.3750000), wk =   0.0312500
        k(    5) = (   0.5000000  -0.5000000   0.5000000), wk =   0.0156250
        k(    6) = (   0.0000000   0.2500000   0.0000000), wk =   0.0234375
        k(    7) = (  -0.1250000   0.3750000  -0.1250000), wk =   0.0937500
        k(    8) = (  -0.2500000   0.5000000  -0.2500000), wk =   0.0937500
        k(    9) = (   0.6250000  -0.3750000   0.6250000), wk =   0.0937500
        k(   10) = (   0.5000000  -0.2500000   0.5000000), wk =   0.0937500
        k(   11) = (   0.3750000  -0.1250000   0.3750000), wk =   0.0937500
        k(   12) = (   0.2500000   0.0000000   0.2500000), wk =   0.0468750
        k(   13) = (   0.0000000   0.5000000   0.0000000), wk =   0.0234375
        k(   14) = (  -0.1250000   0.6250000  -0.1250000), wk =   0.0937500
        k(   15) = (   0.7500000  -0.2500000   0.7500000), wk =   0.0937500
        k(   16) = (   0.6250000  -0.1250000   0.6250000), wk =   0.0937500
        k(   17) = (   0.5000000   0.0000000   0.5000000), wk =   0.0468750
        k(   18) = (   0.0000000   0.7500000   0.0000000), wk =   0.0234375
        k(   19) = (   0.8750000  -0.1250000   0.8750000), wk =   0.0937500
        k(   20) = (   0.7500000   0.0000000   0.7500000), wk =   0.0468750
        k(   21) = (   0.0000000  -1.0000000   0.0000000), wk =   0.0117188
        k(   22) = (  -0.2500000   0.5000000   0.0000000), wk =   0.0937500
        k(   23) = (   0.6250000  -0.3750000   0.8750000), wk =   0.1875000
        k(   24) = (   0.5000000  -0.2500000   0.7500000), wk =   0.0937500
        k(   25) = (   0.7500000  -0.2500000   1.0000000), wk =   0.0937500
        k(   26) = (   0.6250000  -0.1250000   0.8750000), wk =   0.1875000
        k(   27) = (   0.5000000   0.0000000   0.7500000), wk =   0.0937500
        k(   28) = (  -0.2500000  -1.0000000   0.0000000), wk =   0.0468750
        k(   29) = (  -0.5000000  -1.0000000   0.0000000), wk =   0.0234375

     Dense  grid:    30395 G-vectors     FFT dimensions: (  45,  45,  45)

     Estimated max dynamical RAM per process >      27.64 MB

     Estimated total dynamical RAM >     492.77 MB

     Initial potential from superposition of free atoms

     starting charge       9.9998, renormalised to      10.0000


     %%%%%%%%%%%%%%%%%%%%%%%%%%%%%%%%%%%%%%%%%%%%%%%%%%%%%%%%%%%%%%%%%%%%%%%%
     %                                                                      %
     % You are using vdW-DF, which was implemented by the Thonhauser group. %
     % Please cite the following two papers that made this development      %
     % possible and the two reviews that describe the various versions:     %
     %                                                                      %
     %   T. Thonhauser et al., PRL 115, 136402 (2015).                      %
     %   T. Thonhauser et al., PRB 76, 125112 (2007).                       %
     %   K. Berland et al., Rep. Prog. Phys. 78, 066501 (2015).             %
     %   D.C. Langreth et al., J. Phys.: Condens. Matter 21, 084203 (2009). %
     %                                                                      %
     % If you are calculating stress with vdW-DF, please also cite:         %
     %                                                                      %
     %   R. Sabatini et al., J. Phys.: Condens. Matter 24, 424209 (2012).   %
     %                                                                      %
     %%%%%%%%%%%%%%%%%%%%%%%%%%%%%%%%%%%%%%%%%%%%%%%%%%%%%%%%%%%%%%%%%%%%%%%%

     %%%%%%%%%%%%%%%%%%%%%%%%%%%%%%%%%%%%%%%%%%%%%%%%%%%%%%%%%%%%%%%%%%%%%%%%
     %                                                                      %
     %  vdW-DF NEWS:                                                        %
     %                                                                      %
     %  * vdW-DF3 is now available. DOI: 10.1021/acs.jctc.0c00471           %
     %    use with input_dft = 'vdW-DF3-opt1' or 'vdW-DF3-opt2'             %
     %                                                                      %
     %  * Unscreened and range-separated vdW-DF hybrid functionals          %
     %    DOI: 10.1063/1.4986522 and 10.1088/1361-648X/ac2ad2               %
     %    use with input_dft = 'vdW-DF-cx0' (etc) and 'vdW-DF-ahcx'         %
     %                                                                      %
     %%%%%%%%%%%%%%%%%%%%%%%%%%%%%%%%%%%%%%%%%%%%%%%%%%%%%%%%%%%%%%%%%%%%%%%%


     Starting wfcs are    9 randomized atomic wfcs

     total cpu time spent up to now is       15.6 secs

     Self-consistent Calculation

     iteration #  1     ecut=   170.00 Ry     beta= 0.70
     CG style diagonalization
     ethr =  1.00E-02,  avg # of iterations =  3.8

     Threshold (ethr) on eigenvalues was too large:
     Diagonalizing with lowered threshold

     CG style diagonalization
     c_bands:  1 eigenvalues not converged
     ethr =  9.97E-05,  avg # of iterations =  6.3

     total cpu time spent up to now is       17.6 secs

     total energy              =     -66.16127680 Ry
     estimated scf accuracy    <       0.03109069 Ry

     iteration #  2     ecut=   170.00 Ry     beta= 0.70
     CG style diagonalization
     ethr =  3.11E-04,  avg # of iterations =  3.1

     total cpu time spent up to now is       18.5 secs

     total energy              =     -66.16630293 Ry
     estimated scf accuracy    <       0.00086483 Ry

     iteration #  3     ecut=   170.00 Ry     beta= 0.70
     CG style diagonalization
     ethr =  8.65E-06,  avg # of iterations =  5.7

     total cpu time spent up to now is       19.7 secs

     total energy              =     -66.16723531 Ry
     estimated scf accuracy    <       0.00022584 Ry

     iteration #  4     ecut=   170.00 Ry     beta= 0.70
     CG style diagonalization
     ethr =  2.26E-06,  avg # of iterations =  4.2

     total cpu time spent up to now is       20.8 secs

     total energy              =     -66.16723507 Ry
     estimated scf accuracy    <       0.00019721 Ry

     iteration #  5     ecut=   170.00 Ry     beta= 0.70
     CG style diagonalization
     ethr =  1.97E-06,  avg # of iterations =  3.3

     total cpu time spent up to now is       21.7 secs

     total energy              =     -66.16728451 Ry
     estimated scf accuracy    <       0.00000070 Ry

     iteration #  6     ecut=   170.00 Ry     beta= 0.70
     CG style diagonalization
     ethr =  6.98E-09,  avg # of iterations =  6.1

     total cpu time spent up to now is       23.0 secs

     total energy              =     -66.16729041 Ry
     estimated scf accuracy    <       0.00000112 Ry

     iteration #  7     ecut=   170.00 Ry     beta= 0.70
     CG style diagonalization
     ethr =  6.98E-09,  avg # of iterations =  3.0

     total cpu time spent up to now is       23.8 secs

     total energy              =     -66.16729010 Ry
     estimated scf accuracy    <       0.00000054 Ry

     iteration #  8     ecut=   170.00 Ry     beta= 0.70
     CG style diagonalization
     ethr =  5.38E-09,  avg # of iterations =  3.4

     total cpu time spent up to now is       24.8 secs

     total energy              =     -66.16729026 Ry
     estimated scf accuracy    <          4.7E-09 Ry

     iteration #  9     ecut=   170.00 Ry     beta= 0.70
     CG style diagonalization
     ethr =  4.69E-11,  avg # of iterations =  6.1

     total cpu time spent up to now is       26.1 secs

     total energy              =     -66.16729027 Ry
     estimated scf accuracy    <       0.00000002 Ry

     iteration # 10     ecut=   170.00 Ry     beta= 0.70
     CG style diagonalization
     ethr =  4.69E-11,  avg # of iterations =  3.5

     total cpu time spent up to now is       27.0 secs

     total energy              =     -66.16729028 Ry
     estimated scf accuracy    <          1.0E-09 Ry

     iteration # 11     ecut=   170.00 Ry     beta= 0.70
     CG style diagonalization
     ethr =  1.03E-11,  avg # of iterations =  3.8

     total cpu time spent up to now is       28.0 secs

     End of self-consistent calculation

          k = 0.0000 0.0000 0.0000 (  3767 PWs)   bands (ev):

     7.5327  13.7861  13.7861  13.7861  15.9012  15.9012  33.3953  38.3511
    38.3511

          k =-0.1250 0.1250-0.1250 (  3773 PWs)   bands (ev):

     8.1439  13.5527  14.0066  14.0066  15.8055  15.8055  34.2233  35.5587
    39.2043

          k =-0.2500 0.2500-0.2500 (  3762 PWs)   bands (ev):

     9.5633  13.4833  14.1535  14.1535  16.0982  16.0982  31.3280  34.9239
    40.8234

          k =-0.3750 0.3750-0.3750 (  3780 PWs)   bands (ev):

    10.2949  13.8667  13.8667  15.2366  17.0564  17.0564  26.5930  33.4710
    38.8142

          k = 0.5000-0.5000 0.5000 (  3798 PWs)   bands (ev):

    10.3186  13.7069  13.7069  17.3210  17.5824  17.5824  23.5741  32.7910
    37.5098

          k = 0.0000 0.2500 0.0000 (  3775 PWs)   bands (ev):

     8.3522  13.2790  14.2209  14.2209  15.3467  16.1180  34.5975  36.5801
    38.0446

          k =-0.1250 0.3750-0.1250 (  3766 PWs)   bands (ev):

     9.5730  12.8825  14.2814  14.5793  15.5029  16.4529  33.2192  35.7044
    37.5979

          k =-0.2500 0.5000-0.2500 (  3795 PWs)   bands (ev):

    10.6690  13.4622  13.7162  14.4252  17.1947  17.2468  28.3549  34.5154
    36.6849

          k = 0.6250-0.3750 0.6250 (  3778 PWs)   bands (ev):

    10.7875  13.3496  14.1516  15.0939  17.6182  19.6375  23.9359  33.4660
    36.4267

          k = 0.5000-0.2500 0.5000 (  3781 PWs)   bands (ev):

    10.8281  13.4679  14.1414  14.8667  16.9161  19.1599  25.3015  33.5195
    35.5101

          k = 0.3750-0.1250 0.3750 (  3781 PWs)   bands (ev):

    10.4904  13.2358  13.9551  14.4436  15.6953  17.5394  30.0391  34.4447
    36.8911

          k = 0.2500 0.0000 0.2500 (  3777 PWs)   bands (ev):

     9.0817  13.1778  14.2279  14.3724  15.3036  16.3371  33.8853  35.0444
    37.9136

          k = 0.0000 0.5000 0.0000 (  3767 PWs)   bands (ev):

    10.2639  12.2133  14.5975  15.4497  15.4497  16.6690  35.1911  35.1911
    35.7018

          k =-0.1250 0.6250-0.1250 (  3782 PWs)   bands (ev):

    11.0687  11.9635  14.2920  15.6864  17.3351  17.3544  30.4026  33.6670
    34.1806

          k = 0.7500-0.2500 0.7500 (  3779 PWs)   bands (ev):

    11.3609  12.4932  14.1050  15.3667  17.7119  20.7344  25.2989  31.9897
    33.6990

          k = 0.6250-0.1250 0.6250 (  3791 PWs)   bands (ev):

    11.7334  12.8485  13.9487  15.1076  16.9756  21.6323  24.9835  30.2459
    35.8521

          k = 0.5000 0.0000 0.5000 (  3787 PWs)   bands (ev):

    11.8577  12.9705  13.3539  14.9904  15.8472  19.4943  28.6973  30.7798
    36.1581

          k = 0.0000 0.7500 0.0000 (  3792 PWs)   bands (ev):

    10.7848  11.3065  16.7181  17.1073  17.1073  17.2652  30.8761  31.3119
    31.3119

          k = 0.8750-0.1250 0.8750 (  3802 PWs)   bands (ev):

    10.8683  11.3389  16.0872  16.8739  17.8453  20.5765  26.8101  29.6029
    30.8263

          k = 0.7500 0.0000 0.7500 (  3799 PWs)   bands (ev):

    11.3276  12.1251  14.7678  16.2299  17.3929  23.6719  24.4855  27.8522
    32.7337

          k = 0.0000-1.0000 0.0000 (  3812 PWs)   bands (ev):

    10.5146  10.9653  17.5278  18.0451  18.0451  19.6276  26.6686  29.5159
    29.5159

          k =-0.2500 0.5000 0.0000 (  3784 PWs)   bands (ev):

    10.8368  12.4865  13.7708  15.4560  15.5285  17.5903  31.5232  33.6277
    36.2489

          k = 0.6250-0.3750 0.8750 (  3795 PWs)   bands (ev):

    11.5839  12.9820  13.2962  15.1477  16.8298  19.5713  27.1515  32.3343
    34.4034

          k = 0.5000-0.2500 0.7500 (  3782 PWs)   bands (ev):

    11.5879  12.7610  14.1762  14.8769  17.3675  22.1550  23.3177  32.6912
    33.1717

          k = 0.7500-0.2500 1.0000 (  3765 PWs)   bands (ev):

    11.4128  11.7753  14.3274  16.6240  17.0968  19.7706  28.4642  30.3289
    32.1482

          k = 0.6250-0.1250 0.8750 (  3789 PWs)   bands (ev):

    11.7288  12.3164  13.9109  15.9036  17.6290  23.1173  24.9365  29.0861
    31.3182

          k = 0.5000 0.0000 0.7500 (  3786 PWs)   bands (ev):

    12.3156  12.6827  13.0885  15.6110  17.1084  21.8799  27.3450  27.6974
    32.9812

          k =-0.2500-1.0000 0.0000 (  3794 PWs)   bands (ev):

    11.0917  11.4967  15.5081  16.6933  18.0468  22.5971  25.6551  28.6617
    29.7480

          k =-0.5000-1.0000 0.0000 (  3828 PWs)   bands (ev):

    11.9194  13.0530  13.0530  15.5763  18.0486  25.0362  26.1149  26.1149
    29.7764

     the Fermi energy is    17.5117 ev

!    total energy              =     -66.16729028 Ry
     estimated scf accuracy    <          2.0E-11 Ry
     smearing contrib. (-TS)   =      -0.00498737 Ry
     internal energy E=F+TS    =     -66.16230291 Ry

     The total energy is F=E-TS. E is the sum of the following terms:
     one-electron contribution =      16.39256379 Ry
     hartree contribution      =       4.24310404 Ry
     xc contribution           =     -24.80686644 Ry
     ewald contribution        =     -61.99110430 Ry

     convergence has been achieved in  11 iterations

     Writing all to output data dir ./Ptbulk.save/
 
     init_run     :     15.05s CPU     15.11s WALL (       1 calls)
     electrons    :     12.15s CPU     12.60s WALL (       1 calls)

     Called by init_run:
     wfcinit      :      0.10s CPU      0.10s WALL (       1 calls)
     potinit      :     13.53s CPU     13.58s WALL (       1 calls)
     hinit0       :      1.37s CPU      1.38s WALL (       1 calls)

     Called by electrons:
     c_bands      :      5.84s CPU      5.86s WALL (      12 calls)
     sum_band     :      0.89s CPU      0.89s WALL (      12 calls)
     v_of_rho     :     17.37s CPU     17.68s WALL (      12 calls)
     newd         :      0.31s CPU      0.32s WALL (      12 calls)
     mix_rho      :      0.10s CPU      0.11s WALL (      12 calls)
     vdW_kernel   :     11.96s CPU     11.96s WALL (       1 calls)

     Called by c_bands:
     init_us_2    :      0.09s CPU      0.09s WALL (      50 calls)
     init_us_2:cp :      0.09s CPU      0.09s WALL (      50 calls)
     ccgdiagg     :      4.40s CPU      4.41s WALL (      24 calls)
     wfcrot       :      0.96s CPU      0.96s WALL (      22 calls)

     Called by *cgdiagg:
     h_psi        :      4.81s CPU      4.82s WALL (     835 calls)
     s_psi        :      0.19s CPU      0.18s WALL (    1648 calls)

     Called by h_psi:
     h_psi:calbec :      0.20s CPU      0.19s WALL (     835 calls)
     vloc_psi     :      4.49s CPU      4.50s WALL (     835 calls)
     add_vuspsi   :      0.11s CPU      0.11s WALL (     835 calls)
     hs_1psi      :      4.01s CPU      4.02s WALL (     813 calls)
     s_1psi       :      0.17s CPU      0.17s WALL (     813 calls)

     General routines
     calbec       :      0.29s CPU      0.30s WALL (    1672 calls)
     fft          :      1.49s CPU      1.49s WALL (     733 calls)
     ffts         :      0.02s CPU      0.02s WALL (      12 calls)
     fftw         :      4.32s CPU      4.31s WALL (    2238 calls)
 
     Parallel routines
 
     PWSCF        :     27.41s CPU     29.27s WALL

 
   This run was terminated on:  10:20:24   7Oct2022            

=------------------------------------------------------------------------------=
   JOB DONE.
=------------------------------------------------------------------------------=
