
     Program PWSCF v.7.1 starts on  7Oct2022 at 10:19:54 

     This program is part of the open-source Quantum ESPRESSO suite
     for quantum simulation of materials; please cite
         "P. Giannozzi et al., J. Phys.:Condens. Matter 21 395502 (2009);
         "P. Giannozzi et al., J. Phys.:Condens. Matter 29 465901 (2017);
         "P. Giannozzi et al., J. Chem. Phys. 152 154105 (2020);
          URL http://www.quantum-espresso.org", 
     in publications or presentations arising from this work. More details at
     http://www.quantum-espresso.org/quote

     Parallel version (MPI), running on    24 processors

     MPI processes distributed on     3 nodes
     18750 MiB available memory on the printing compute node when the environment starts
 
     Waiting for input...
     Reading input from standard input

     Current dimensions of program PWSCF are:
     Max number of different atomic species (ntypx) = 10
     Max number of k-points (npk) =  40000
     Max angular momentum in pseudopotentials (lmaxx) =  4
     file Pt.pbe-n-rrkjus_psl.1.0.0.UPF: wavefunction(s)  6S renormalized

     **************************************************************************
     Initializing libbeef V0.1.2 with the BEEF-vdW functional.
     Citation: Wellendorff et al., PRB 85, 235149 (2012).
     **************************************************************************


     IMPORTANT: XC functional enforced from input :
     Exchange-correlation= BEEF-VDW
                           (   1   4  43  14   2   0   0)
     Any further DFT definition will be discarded
     Please, verify this is what you really want

 
     K-points division:     npool     =      24
     Subspace diagonalization in iterative solution of the eigenvalue problem:
     a serial algorithm will be used

 
     G-vector sticks info
     --------------------
     sticks:   dense  smooth     PW     G-vecs:    dense   smooth      PW
     Sum        1285    1285    379                30395    30395    4909
 
     Using Slab Decomposition
 


     bravais-lattice index     =            2
     lattice parameter (alat)  =       7.3920  a.u.
     unit-cell volume          =     100.9778 (a.u.)^3
     number of atoms/cell      =            1
     number of atomic types    =            1
     number of electrons       =        10.00
     number of Kohn-Sham states=            9
     kinetic-energy cutoff     =     170.0000  Ry
     charge density cutoff     =     680.0000  Ry
     scf convergence threshold =      1.0E-09
     mixing beta               =       0.7000
     number of iterations used =            8  plain     mixing
     Exchange-correlation= BEEF-VDW
                           (   1   4  43  14   2   0   0)

     celldm(1)=   7.392000  celldm(2)=   0.000000  celldm(3)=   0.000000
     celldm(4)=   0.000000  celldm(5)=   0.000000  celldm(6)=   0.000000

     crystal axes: (cart. coord. in units of alat)
               a(1) = (  -0.500000   0.000000   0.500000 )  
               a(2) = (   0.000000   0.500000   0.500000 )  
               a(3) = (  -0.500000   0.500000   0.000000 )  

     reciprocal axes: (cart. coord. in units 2 pi/alat)
               b(1) = ( -1.000000 -1.000000  1.000000 )  
               b(2) = (  1.000000  1.000000  1.000000 )  
               b(3) = ( -1.000000  1.000000 -1.000000 )  


     PseudoPot. # 1 for Pt read from file:
     ./pseudo/Pt.pbe-n-rrkjus_psl.1.0.0.UPF
     MD5 check sum: 6bc887cfe28d63a5fc1f72d35a7d3ef7
     Pseudo is Ultrasoft + core correction, Zval = 10.0
     Generated using &quot;atomic&quot; code by A. Dal Corso  v.6.3
     Using radial grid of 1277 points,  6 beta functions with: 
                l(1) =   0
                l(2) =   0
                l(3) =   1
                l(4) =   1
                l(5) =   2
                l(6) =   2
     Q(r) pseudized with 0 coefficients 


     atomic species   valence    mass     pseudopotential
        Pt            10.00   195.07800     Pt( 1.00)

     48 Sym. Ops., with inversion, found



   Cartesian axes

     site n.     atom                  positions (alat units)
         1           Pt  tau(   1) = (   0.0000000   0.0000000   0.0000000  )

     number of k points=    29  Gaussian smearing, width (Ry)=  0.0200
                       cart. coord. in units 2pi/alat
        k(    1) = (   0.0000000   0.0000000   0.0000000), wk =   0.0039062
        k(    2) = (  -0.1250000   0.1250000  -0.1250000), wk =   0.0312500
        k(    3) = (  -0.2500000   0.2500000  -0.2500000), wk =   0.0312500
        k(    4) = (  -0.3750000   0.3750000  -0.3750000), wk =   0.0312500
        k(    5) = (   0.5000000  -0.5000000   0.5000000), wk =   0.0156250
        k(    6) = (   0.0000000   0.2500000   0.0000000), wk =   0.0234375
        k(    7) = (  -0.1250000   0.3750000  -0.1250000), wk =   0.0937500
        k(    8) = (  -0.2500000   0.5000000  -0.2500000), wk =   0.0937500
        k(    9) = (   0.6250000  -0.3750000   0.6250000), wk =   0.0937500
        k(   10) = (   0.5000000  -0.2500000   0.5000000), wk =   0.0937500
        k(   11) = (   0.3750000  -0.1250000   0.3750000), wk =   0.0937500
        k(   12) = (   0.2500000   0.0000000   0.2500000), wk =   0.0468750
        k(   13) = (   0.0000000   0.5000000   0.0000000), wk =   0.0234375
        k(   14) = (  -0.1250000   0.6250000  -0.1250000), wk =   0.0937500
        k(   15) = (   0.7500000  -0.2500000   0.7500000), wk =   0.0937500
        k(   16) = (   0.6250000  -0.1250000   0.6250000), wk =   0.0937500
        k(   17) = (   0.5000000   0.0000000   0.5000000), wk =   0.0468750
        k(   18) = (   0.0000000   0.7500000   0.0000000), wk =   0.0234375
        k(   19) = (   0.8750000  -0.1250000   0.8750000), wk =   0.0937500
        k(   20) = (   0.7500000   0.0000000   0.7500000), wk =   0.0468750
        k(   21) = (   0.0000000  -1.0000000   0.0000000), wk =   0.0117188
        k(   22) = (  -0.2500000   0.5000000   0.0000000), wk =   0.0937500
        k(   23) = (   0.6250000  -0.3750000   0.8750000), wk =   0.1875000
        k(   24) = (   0.5000000  -0.2500000   0.7500000), wk =   0.0937500
        k(   25) = (   0.7500000  -0.2500000   1.0000000), wk =   0.0937500
        k(   26) = (   0.6250000  -0.1250000   0.8750000), wk =   0.1875000
        k(   27) = (   0.5000000   0.0000000   0.7500000), wk =   0.0937500
        k(   28) = (  -0.2500000  -1.0000000   0.0000000), wk =   0.0468750
        k(   29) = (  -0.5000000  -1.0000000   0.0000000), wk =   0.0234375

     Dense  grid:    30395 G-vectors     FFT dimensions: (  45,  45,  45)

     Estimated max dynamical RAM per process >      27.64 MB

     Estimated total dynamical RAM >     492.67 MB

     Initial potential from superposition of free atoms

     starting charge       9.9998, renormalised to      10.0000


     %%%%%%%%%%%%%%%%%%%%%%%%%%%%%%%%%%%%%%%%%%%%%%%%%%%%%%%%%%%%%%%%%%%%%%%%
     %                                                                      %
     % You are using vdW-DF, which was implemented by the Thonhauser group. %
     % Please cite the following two papers that made this development      %
     % possible and the two reviews that describe the various versions:     %
     %                                                                      %
     %   T. Thonhauser et al., PRL 115, 136402 (2015).                      %
     %   T. Thonhauser et al., PRB 76, 125112 (2007).                       %
     %   K. Berland et al., Rep. Prog. Phys. 78, 066501 (2015).             %
     %   D.C. Langreth et al., J. Phys.: Condens. Matter 21, 084203 (2009). %
     %                                                                      %
     % If you are calculating stress with vdW-DF, please also cite:         %
     %                                                                      %
     %   R. Sabatini et al., J. Phys.: Condens. Matter 24, 424209 (2012).   %
     %                                                                      %
     %%%%%%%%%%%%%%%%%%%%%%%%%%%%%%%%%%%%%%%%%%%%%%%%%%%%%%%%%%%%%%%%%%%%%%%%

     %%%%%%%%%%%%%%%%%%%%%%%%%%%%%%%%%%%%%%%%%%%%%%%%%%%%%%%%%%%%%%%%%%%%%%%%
     %                                                                      %
     %  vdW-DF NEWS:                                                        %
     %                                                                      %
     %  * vdW-DF3 is now available. DOI: 10.1021/acs.jctc.0c00471           %
     %    use with input_dft = 'vdW-DF3-opt1' or 'vdW-DF3-opt2'             %
     %                                                                      %
     %  * Unscreened and range-separated vdW-DF hybrid functionals          %
     %    DOI: 10.1063/1.4986522 and 10.1088/1361-648X/ac2ad2               %
     %    use with input_dft = 'vdW-DF-cx0' (etc) and 'vdW-DF-ahcx'         %
     %                                                                      %
     %%%%%%%%%%%%%%%%%%%%%%%%%%%%%%%%%%%%%%%%%%%%%%%%%%%%%%%%%%%%%%%%%%%%%%%%


     Starting wfcs are    9 randomized atomic wfcs

     total cpu time spent up to now is       13.0 secs

     Self-consistent Calculation

     iteration #  1     ecut=   170.00 Ry     beta= 0.70
     CG style diagonalization
     ethr =  1.00E-02,  avg # of iterations =  3.8

     Threshold (ethr) on eigenvalues was too large:
     Diagonalizing with lowered threshold

     CG style diagonalization
     c_bands:  1 eigenvalues not converged
     ethr =  9.74E-05,  avg # of iterations =  6.3

     total cpu time spent up to now is       14.6 secs

     total energy              =     -66.16127409 Ry
     estimated scf accuracy    <       0.03074191 Ry

     iteration #  2     ecut=   170.00 Ry     beta= 0.70
     CG style diagonalization
     ethr =  3.07E-04,  avg # of iterations =  3.1

     total cpu time spent up to now is       15.4 secs

     total energy              =     -66.16614575 Ry
     estimated scf accuracy    <       0.00085585 Ry

     iteration #  3     ecut=   170.00 Ry     beta= 0.70
     CG style diagonalization
     ethr =  8.56E-06,  avg # of iterations =  5.7

     total cpu time spent up to now is       16.3 secs

     total energy              =     -66.16702667 Ry
     estimated scf accuracy    <       0.00019502 Ry

     iteration #  4     ecut=   170.00 Ry     beta= 0.70
     CG style diagonalization
     ethr =  1.95E-06,  avg # of iterations =  4.2

     total cpu time spent up to now is       17.2 secs

     total energy              =     -66.16703834 Ry
     estimated scf accuracy    <       0.00012169 Ry

     iteration #  5     ecut=   170.00 Ry     beta= 0.70
     CG style diagonalization
     ethr =  1.22E-06,  avg # of iterations =  3.4

     total cpu time spent up to now is       18.0 secs

     total energy              =     -66.16707368 Ry
     estimated scf accuracy    <       0.00000128 Ry

     iteration #  6     ecut=   170.00 Ry     beta= 0.70
     CG style diagonalization
     ethr =  1.28E-08,  avg # of iterations =  5.3

     total cpu time spent up to now is       18.9 secs

     total energy              =     -66.16707815 Ry
     estimated scf accuracy    <       0.00000083 Ry

     iteration #  7     ecut=   170.00 Ry     beta= 0.70
     CG style diagonalization
     ethr =  8.30E-09,  avg # of iterations =  3.0

     total cpu time spent up to now is       19.6 secs

     total energy              =     -66.16707788 Ry
     estimated scf accuracy    <       0.00000051 Ry

     iteration #  8     ecut=   170.00 Ry     beta= 0.70
     CG style diagonalization
     ethr =  5.14E-09,  avg # of iterations =  3.3

     total cpu time spent up to now is       20.4 secs

     total energy              =     -66.16707801 Ry
     estimated scf accuracy    <          4.4E-09 Ry

     iteration #  9     ecut=   170.00 Ry     beta= 0.70
     CG style diagonalization
     ethr =  4.36E-11,  avg # of iterations =  6.0

     total cpu time spent up to now is       21.4 secs

     total energy              =     -66.16707805 Ry
     estimated scf accuracy    <       0.00000002 Ry

     iteration # 10     ecut=   170.00 Ry     beta= 0.70
     CG style diagonalization
     ethr =  4.36E-11,  avg # of iterations =  3.1

     total cpu time spent up to now is       22.1 secs

     total energy              =     -66.16707804 Ry
     estimated scf accuracy    <       0.00000003 Ry

     iteration # 11     ecut=   170.00 Ry     beta= 0.70
     CG style diagonalization
     ethr =  4.36E-11,  avg # of iterations =  3.6

     total cpu time spent up to now is       22.9 secs

     total energy              =     -66.16707804 Ry
     estimated scf accuracy    <          2.5E-09 Ry

     iteration # 12     ecut=   170.00 Ry     beta= 0.70
     CG style diagonalization
     ethr =  2.46E-11,  avg # of iterations =  3.3

     total cpu time spent up to now is       23.6 secs

     End of self-consistent calculation

          k = 0.0000 0.0000 0.0000 (  3767 PWs)   bands (ev):

     7.5557  13.8173  13.8173  13.8173  15.9382  15.9382  33.4346  38.4003
    38.4003

          k =-0.1250 0.1250-0.1250 (  3773 PWs)   bands (ev):

     8.1677  13.5831  14.0384  14.0384  15.8421  15.8421  34.2658  35.6067
    39.2564

          k =-0.2500 0.2500-0.2500 (  3762 PWs)   bands (ev):

     9.5887  13.5136  14.1855  14.1855  16.1354  16.1354  31.3805  34.9695
    40.8859

          k =-0.3750 0.3750-0.3750 (  3780 PWs)   bands (ev):

    10.3195  13.8980  13.8980  15.2702  17.0964  17.0964  26.6471  33.5124
    38.8735

          k = 0.5000-0.5000 0.5000 (  3798 PWs)   bands (ev):

    10.3427  13.7377  13.7377  17.3557  17.6240  17.6240  23.6282  32.8304
    37.5656

          k = 0.0000 0.2500 0.0000 (  3775 PWs)   bands (ev):

     8.3764  13.3087  14.2531  14.2531  15.3820  16.1556  34.6404  36.6281
    38.0983

          k =-0.1250 0.3750-0.1250 (  3764 PWs)   bands (ev):

     9.5988  12.9111  14.3136  14.6124  15.5384  16.4913  33.2718  35.7521
    37.6570

          k =-0.2500 0.5000-0.2500 (  3777 PWs)   bands (ev):

    10.6948  13.4924  13.7470  14.4579  17.2343  17.2874  28.4091  34.5607
    36.7439

          k = 0.6250-0.3750 0.6250 (  3774 PWs)   bands (ev):

    10.8125  13.3792  14.1835  15.1276  17.6600  19.6801  23.9887  33.5097
    36.4836

          k = 0.5000-0.2500 0.5000 (  3781 PWs)   bands (ev):

    10.8534  13.4980  14.1733  14.8998  16.9557  19.2036  25.3547  33.5660
    35.5642

          k = 0.3750-0.1250 0.3750 (  3774 PWs)   bands (ev):

    10.5168  13.2656  13.9864  14.4763  15.7313  17.5806  30.0932  34.4972
    36.9453

          k = 0.2500 0.0000 0.2500 (  3777 PWs)   bands (ev):

     9.1069  13.2072  14.2602  14.4050  15.3387  16.3751  33.9350  35.0938
    37.9663

          k = 0.0000 0.5000 0.0000 (  3767 PWs)   bands (ev):

    10.2901  12.2403  14.6305  15.4851  15.4851  16.7081  35.2484  35.2484
    35.7516

          k =-0.1250 0.6250-0.1250 (  3778 PWs)   bands (ev):

    11.0947  11.9899  14.3244  15.7225  17.3761  17.3943  30.4572  33.7225
    34.2368

          k = 0.7500-0.2500 0.7500 (  3779 PWs)   bands (ev):

    11.3864  12.5208  14.1369  15.4018  17.7540  20.7803  25.3491  32.0463
    33.7542

          k = 0.6250-0.1250 0.6250 (  3769 PWs)   bands (ev):

    11.7599  12.8769  13.9801  15.1419  17.0153  21.6791  25.0356  30.3016
    35.9112

          k = 0.5000 0.0000 0.5000 (  3775 PWs)   bands (ev):

    11.8857  12.9995  13.3834  15.0244  15.8837  19.5397  28.7506  30.8378
    36.2065

          k = 0.0000 0.7500 0.0000 (  3792 PWs)   bands (ev):

    10.8091  11.3313  16.7548  17.1474  17.1474  17.3061  30.9369  31.3636
    31.3636

          k = 0.8750-0.1250 0.8750 (  3783 PWs)   bands (ev):

    10.8922  11.3639  16.1236  16.9133  17.8877  20.6210  26.8626  29.6577
    30.8769

          k = 0.7500 0.0000 0.7500 (  3799 PWs)   bands (ev):

    11.3525  12.1520  14.8011  16.2673  17.4338  23.7201  24.5352  27.9079
    32.7882

          k = 0.0000-1.0000 0.0000 (  3812 PWs)   bands (ev):

    10.5377  10.9893  17.5694  18.0881  18.0881  19.6661  26.7279  29.5637
    29.5637

          k =-0.2500 0.5000 0.0000 (  3770 PWs)   bands (ev):

    10.8639  12.5142  13.8016  15.4914  15.5641  17.6316  31.5772  33.6864
    36.3018

          k = 0.6250-0.3750 0.8750 (  3783 PWs)   bands (ev):

    11.6107  13.0107  13.3263  15.1822  16.8689  19.6164  27.2044  32.3909
    34.4559

          k = 0.5000-0.2500 0.7500 (  3782 PWs)   bands (ev):

    11.6143  12.7890  14.2081  14.9106  17.4084  22.2007  23.3696  32.7491
    33.2239

          k = 0.7500-0.2500 1.0000 (  3765 PWs)   bands (ev):

    11.4383  11.8013  14.3599  16.6625  17.1368  19.8155  28.5172  30.3823
    32.2048

          k = 0.6250-0.1250 0.8750 (  3786 PWs)   bands (ev):

    11.7546  12.3437  13.9423  15.9401  17.6706  23.1669  24.9856  29.1415
    31.3730

          k = 0.5000 0.0000 0.7500 (  3780 PWs)   bands (ev):

    12.3426  12.7114  13.1179  15.6467  17.1485  21.9277  27.3985  27.7509
    33.0376

          k =-0.2500-1.0000 0.0000 (  3794 PWs)   bands (ev):

    11.1160  11.5221  15.5432  16.7321  18.0898  22.6431  25.7098  28.7112
    29.8015

          k =-0.5000-1.0000 0.0000 (  3828 PWs)   bands (ev):

    11.9454  13.0822  13.0822  15.6118  18.0916  25.0896  26.1649  26.1649
    29.8317

     the Fermi energy is    17.5528 ev

!    total energy              =     -66.16707804 Ry
     estimated scf accuracy    <          9.1E-11 Ry
     smearing contrib. (-TS)   =      -0.00497187 Ry
     internal energy E=F+TS    =     -66.16210617 Ry

     The total energy is F=E-TS. E is the sum of the following terms:
     one-electron contribution =      16.43772138 Ry
     hartree contribution      =       4.23341618 Ry
     xc contribution           =     -24.80859446 Ry
     ewald contribution        =     -62.02464927 Ry

     convergence has been achieved in  12 iterations

     Writing all to output data dir ./Ptbulk.save/
 
     init_run     :     12.01s CPU     12.61s WALL (       1 calls)
     electrons    :     10.36s CPU     10.63s WALL (       1 calls)

     Called by init_run:
     wfcinit      :      0.08s CPU      0.08s WALL (       1 calls)
     potinit      :     10.89s CPU     10.94s WALL (       1 calls)
     hinit0       :      0.99s CPU      1.55s WALL (       1 calls)

     Called by electrons:
     c_bands      :      4.73s CPU      4.71s WALL (      13 calls)
     sum_band     :      0.76s CPU      0.75s WALL (      13 calls)
     v_of_rho     :     14.62s CPU     14.89s WALL (      13 calls)
     newd         :      0.18s CPU      0.19s WALL (      13 calls)
     mix_rho      :      0.11s CPU      0.11s WALL (      13 calls)
     vdW_kernel   :      9.70s CPU      9.70s WALL (       1 calls)

     Called by c_bands:
     init_us_2    :      0.07s CPU      0.08s WALL (      54 calls)
     init_us_2:cp :      0.06s CPU      0.08s WALL (      54 calls)
     ccgdiagg     :      3.42s CPU      3.42s WALL (      26 calls)
     wfcrot       :      0.86s CPU      0.85s WALL (      24 calls)

     Called by *cgdiagg:
     h_psi        :      3.73s CPU      3.79s WALL (     828 calls)
     s_psi        :      0.15s CPU      0.15s WALL (    1632 calls)

     Called by h_psi:
     h_psi:calbec :      0.11s CPU      0.13s WALL (     828 calls)
     vloc_psi     :      3.45s CPU      3.54s WALL (     828 calls)
     add_vuspsi   :      0.11s CPU      0.09s WALL (     828 calls)
     hs_1psi      :      3.02s CPU      3.10s WALL (     804 calls)
     s_1psi       :      0.17s CPU      0.15s WALL (     804 calls)

     General routines
     calbec       :      0.20s CPU      0.21s WALL (    1658 calls)
     fft          :      1.22s CPU      1.28s WALL (     794 calls)
     ffts         :      0.00s CPU      0.02s WALL (      13 calls)
     fftw         :      3.40s CPU      3.46s WALL (    2274 calls)
 
     Parallel routines
 
     PWSCF        :     22.54s CPU     24.83s WALL

 
   This run was terminated on:  10:20:18   7Oct2022            

=------------------------------------------------------------------------------=
   JOB DONE.
=------------------------------------------------------------------------------=
