
     Program PWSCF v.7.1 starts on  7Oct2022 at 10:48:16 

     This program is part of the open-source Quantum ESPRESSO suite
     for quantum simulation of materials; please cite
         "P. Giannozzi et al., J. Phys.:Condens. Matter 21 395502 (2009);
         "P. Giannozzi et al., J. Phys.:Condens. Matter 29 465901 (2017);
         "P. Giannozzi et al., J. Chem. Phys. 152 154105 (2020);
          URL http://www.quantum-espresso.org", 
     in publications or presentations arising from this work. More details at
     http://www.quantum-espresso.org/quote

     Parallel version (MPI), running on    24 processors

     MPI processes distributed on     3 nodes
     94714 MiB available memory on the printing compute node when the environment starts
 
     Waiting for input...
     Reading input from standard input

     Current dimensions of program PWSCF are:
     Max number of different atomic species (ntypx) = 10
     Max number of k-points (npk) =  40000
     Max angular momentum in pseudopotentials (lmaxx) =  4
     file Pt.pbe-n-rrkjus_psl.1.0.0.UPF: wavefunction(s)  6S renormalized

     **************************************************************************
     Initializing libbeef V0.1.2 with the BEEF-vdW functional.
     Citation: Wellendorff et al., PRB 85, 235149 (2012).
     **************************************************************************


     IMPORTANT: XC functional enforced from input :
     Exchange-correlation= BEEF-VDW
                           (   1   4  43  14   2   0   0)
     Any further DFT definition will be discarded
     Please, verify this is what you really want

 
     K-points division:     npool     =      24
     Subspace diagonalization in iterative solution of the eigenvalue problem:
     a serial algorithm will be used

 
     G-vector sticks info
     --------------------
     sticks:   dense  smooth     PW     G-vecs:    dense   smooth      PW
     Sum        1285    1285    379                30923    30923    4957
 
     Using Slab Decomposition
 


     bravais-lattice index     =            2
     lattice parameter (alat)  =       7.4700  a.u.
     unit-cell volume          =     104.2082 (a.u.)^3
     number of atoms/cell      =            1
     number of atomic types    =            1
     number of electrons       =        10.00
     number of Kohn-Sham states=            9
     kinetic-energy cutoff     =     170.0000  Ry
     charge density cutoff     =     680.0000  Ry
     scf convergence threshold =      1.0E-09
     mixing beta               =       0.7000
     number of iterations used =            8  plain     mixing
     Exchange-correlation= BEEF-VDW
                           (   1   4  43  14   2   0   0)

     celldm(1)=   7.470000  celldm(2)=   0.000000  celldm(3)=   0.000000
     celldm(4)=   0.000000  celldm(5)=   0.000000  celldm(6)=   0.000000

     crystal axes: (cart. coord. in units of alat)
               a(1) = (  -0.500000   0.000000   0.500000 )  
               a(2) = (   0.000000   0.500000   0.500000 )  
               a(3) = (  -0.500000   0.500000   0.000000 )  

     reciprocal axes: (cart. coord. in units 2 pi/alat)
               b(1) = ( -1.000000 -1.000000  1.000000 )  
               b(2) = (  1.000000  1.000000  1.000000 )  
               b(3) = ( -1.000000  1.000000 -1.000000 )  


     PseudoPot. # 1 for Pt read from file:
     ./pseudo/Pt.pbe-n-rrkjus_psl.1.0.0.UPF
     MD5 check sum: 6bc887cfe28d63a5fc1f72d35a7d3ef7
     Pseudo is Ultrasoft + core correction, Zval = 10.0
     Generated using &quot;atomic&quot; code by A. Dal Corso  v.6.3
     Using radial grid of 1277 points,  6 beta functions with: 
                l(1) =   0
                l(2) =   0
                l(3) =   1
                l(4) =   1
                l(5) =   2
                l(6) =   2
     Q(r) pseudized with 0 coefficients 


     atomic species   valence    mass     pseudopotential
        Pt            10.00   195.07800     Pt( 1.00)

     48 Sym. Ops., with inversion, found



   Cartesian axes

     site n.     atom                  positions (alat units)
         1           Pt  tau(   1) = (   0.0000000   0.0000000   0.0000000  )

     number of k points=    29  Gaussian smearing, width (Ry)=  0.0200
                       cart. coord. in units 2pi/alat
        k(    1) = (   0.0000000   0.0000000   0.0000000), wk =   0.0039062
        k(    2) = (  -0.1250000   0.1250000  -0.1250000), wk =   0.0312500
        k(    3) = (  -0.2500000   0.2500000  -0.2500000), wk =   0.0312500
        k(    4) = (  -0.3750000   0.3750000  -0.3750000), wk =   0.0312500
        k(    5) = (   0.5000000  -0.5000000   0.5000000), wk =   0.0156250
        k(    6) = (   0.0000000   0.2500000   0.0000000), wk =   0.0234375
        k(    7) = (  -0.1250000   0.3750000  -0.1250000), wk =   0.0937500
        k(    8) = (  -0.2500000   0.5000000  -0.2500000), wk =   0.0937500
        k(    9) = (   0.6250000  -0.3750000   0.6250000), wk =   0.0937500
        k(   10) = (   0.5000000  -0.2500000   0.5000000), wk =   0.0937500
        k(   11) = (   0.3750000  -0.1250000   0.3750000), wk =   0.0937500
        k(   12) = (   0.2500000   0.0000000   0.2500000), wk =   0.0468750
        k(   13) = (   0.0000000   0.5000000   0.0000000), wk =   0.0234375
        k(   14) = (  -0.1250000   0.6250000  -0.1250000), wk =   0.0937500
        k(   15) = (   0.7500000  -0.2500000   0.7500000), wk =   0.0937500
        k(   16) = (   0.6250000  -0.1250000   0.6250000), wk =   0.0937500
        k(   17) = (   0.5000000   0.0000000   0.5000000), wk =   0.0468750
        k(   18) = (   0.0000000   0.7500000   0.0000000), wk =   0.0234375
        k(   19) = (   0.8750000  -0.1250000   0.8750000), wk =   0.0937500
        k(   20) = (   0.7500000   0.0000000   0.7500000), wk =   0.0468750
        k(   21) = (   0.0000000  -1.0000000   0.0000000), wk =   0.0117188
        k(   22) = (  -0.2500000   0.5000000   0.0000000), wk =   0.0937500
        k(   23) = (   0.6250000  -0.3750000   0.8750000), wk =   0.1875000
        k(   24) = (   0.5000000  -0.2500000   0.7500000), wk =   0.0937500
        k(   25) = (   0.7500000  -0.2500000   1.0000000), wk =   0.0937500
        k(   26) = (   0.6250000  -0.1250000   0.8750000), wk =   0.1875000
        k(   27) = (   0.5000000   0.0000000   0.7500000), wk =   0.0937500
        k(   28) = (  -0.2500000  -1.0000000   0.0000000), wk =   0.0468750
        k(   29) = (  -0.5000000  -1.0000000   0.0000000), wk =   0.0234375

     Dense  grid:    30923 G-vectors     FFT dimensions: (  45,  45,  45)

     Estimated max dynamical RAM per process >      28.01 MB

     Estimated total dynamical RAM >     498.66 MB

     Initial potential from superposition of free atoms

     starting charge       9.9998, renormalised to      10.0000


     %%%%%%%%%%%%%%%%%%%%%%%%%%%%%%%%%%%%%%%%%%%%%%%%%%%%%%%%%%%%%%%%%%%%%%%%
     %                                                                      %
     % You are using vdW-DF, which was implemented by the Thonhauser group. %
     % Please cite the following two papers that made this development      %
     % possible and the two reviews that describe the various versions:     %
     %                                                                      %
     %   T. Thonhauser et al., PRL 115, 136402 (2015).                      %
     %   T. Thonhauser et al., PRB 76, 125112 (2007).                       %
     %   K. Berland et al., Rep. Prog. Phys. 78, 066501 (2015).             %
     %   D.C. Langreth et al., J. Phys.: Condens. Matter 21, 084203 (2009). %
     %                                                                      %
     % If you are calculating stress with vdW-DF, please also cite:         %
     %                                                                      %
     %   R. Sabatini et al., J. Phys.: Condens. Matter 24, 424209 (2012).   %
     %                                                                      %
     %%%%%%%%%%%%%%%%%%%%%%%%%%%%%%%%%%%%%%%%%%%%%%%%%%%%%%%%%%%%%%%%%%%%%%%%

     %%%%%%%%%%%%%%%%%%%%%%%%%%%%%%%%%%%%%%%%%%%%%%%%%%%%%%%%%%%%%%%%%%%%%%%%
     %                                                                      %
     %  vdW-DF NEWS:                                                        %
     %                                                                      %
     %  * vdW-DF3 is now available. DOI: 10.1021/acs.jctc.0c00471           %
     %    use with input_dft = 'vdW-DF3-opt1' or 'vdW-DF3-opt2'             %
     %                                                                      %
     %  * Unscreened and range-separated vdW-DF hybrid functionals          %
     %    DOI: 10.1063/1.4986522 and 10.1088/1361-648X/ac2ad2               %
     %    use with input_dft = 'vdW-DF-cx0' (etc) and 'vdW-DF-ahcx'         %
     %                                                                      %
     %%%%%%%%%%%%%%%%%%%%%%%%%%%%%%%%%%%%%%%%%%%%%%%%%%%%%%%%%%%%%%%%%%%%%%%%


     Starting wfcs are    9 randomized atomic wfcs

     total cpu time spent up to now is       16.0 secs

     Self-consistent Calculation

     iteration #  1     ecut=   170.00 Ry     beta= 0.70
     CG style diagonalization
     ethr =  1.00E-02,  avg # of iterations =  3.7

     Threshold (ethr) on eigenvalues was too large:
     Diagonalizing with lowered threshold

     CG style diagonalization
     c_bands:  1 eigenvalues not converged
     ethr =  1.04E-04,  avg # of iterations =  6.1

     total cpu time spent up to now is       17.9 secs

     total energy              =     -66.16391936 Ry
     estimated scf accuracy    <       0.03140473 Ry

     iteration #  2     ecut=   170.00 Ry     beta= 0.70
     CG style diagonalization
     ethr =  3.14E-04,  avg # of iterations =  3.1

     total cpu time spent up to now is       18.8 secs

     total energy              =     -66.16926776 Ry
     estimated scf accuracy    <       0.00110631 Ry

     iteration #  3     ecut=   170.00 Ry     beta= 0.70
     CG style diagonalization
     ethr =  1.11E-05,  avg # of iterations =  5.2

     total cpu time spent up to now is       20.0 secs

     total energy              =     -66.17019836 Ry
     estimated scf accuracy    <       0.00018444 Ry

     iteration #  4     ecut=   170.00 Ry     beta= 0.70
     CG style diagonalization
     ethr =  1.84E-06,  avg # of iterations =  4.2

     total cpu time spent up to now is       21.0 secs

     total energy              =     -66.17021921 Ry
     estimated scf accuracy    <       0.00010780 Ry

     iteration #  5     ecut=   170.00 Ry     beta= 0.70
     CG style diagonalization
     ethr =  1.08E-06,  avg # of iterations =  3.5

     total cpu time spent up to now is       22.0 secs

     total energy              =     -66.17025500 Ry
     estimated scf accuracy    <       0.00000242 Ry

     iteration #  6     ecut=   170.00 Ry     beta= 0.70
     CG style diagonalization
     ethr =  2.42E-08,  avg # of iterations =  5.0

     total cpu time spent up to now is       23.1 secs

     total energy              =     -66.17026099 Ry
     estimated scf accuracy    <       0.00000120 Ry

     iteration #  7     ecut=   170.00 Ry     beta= 0.70
     CG style diagonalization
     ethr =  1.20E-08,  avg # of iterations =  3.1

     total cpu time spent up to now is       24.0 secs

     total energy              =     -66.17026043 Ry
     estimated scf accuracy    <       0.00000179 Ry

     iteration #  8     ecut=   170.00 Ry     beta= 0.70
     CG style diagonalization
     ethr =  1.20E-08,  avg # of iterations =  3.0

     total cpu time spent up to now is       24.9 secs

     total energy              =     -66.17026038 Ry
     estimated scf accuracy    <       0.00000045 Ry

     iteration #  9     ecut=   170.00 Ry     beta= 0.70
     CG style diagonalization
     ethr =  4.47E-09,  avg # of iterations =  3.2

     total cpu time spent up to now is       25.8 secs

     total energy              =     -66.17026044 Ry
     estimated scf accuracy    <       0.00000010 Ry

     iteration # 10     ecut=   170.00 Ry     beta= 0.70
     CG style diagonalization
     ethr =  9.57E-10,  avg # of iterations =  3.6

     total cpu time spent up to now is       26.8 secs

     total energy              =     -66.17026045 Ry
     estimated scf accuracy    <       0.00000006 Ry

     iteration # 11     ecut=   170.00 Ry     beta= 0.70
     CG style diagonalization
     ethr =  6.38E-10,  avg # of iterations =  3.0

     total cpu time spent up to now is       27.7 secs

     total energy              =     -66.17026050 Ry
     estimated scf accuracy    <       0.00000003 Ry

     iteration # 12     ecut=   170.00 Ry     beta= 0.70
     CG style diagonalization
     ethr =  3.40E-10,  avg # of iterations =  3.2

     total cpu time spent up to now is       28.7 secs

     total energy              =     -66.17026050 Ry
     estimated scf accuracy    <       0.00000016 Ry

     iteration # 13     ecut=   170.00 Ry     beta= 0.70
     CG style diagonalization
     ethr =  3.40E-10,  avg # of iterations =  3.0

     total cpu time spent up to now is       29.5 secs

     total energy              =     -66.17026043 Ry
     estimated scf accuracy    <       0.00000013 Ry

     iteration # 14     ecut=   170.00 Ry     beta= 0.70
     CG style diagonalization
     ethr =  3.40E-10,  avg # of iterations =  3.6

     total cpu time spent up to now is       30.5 secs

     total energy              =     -66.17026046 Ry
     estimated scf accuracy    <          5.1E-09 Ry

     iteration # 15     ecut=   170.00 Ry     beta= 0.70
     CG style diagonalization
     ethr =  5.13E-11,  avg # of iterations =  3.9

     total cpu time spent up to now is       31.5 secs

     total energy              =     -66.17026053 Ry
     estimated scf accuracy    <       0.00000003 Ry

     iteration # 16     ecut=   170.00 Ry     beta= 0.70
     CG style diagonalization
     ethr =  5.13E-11,  avg # of iterations =  5.4

     total cpu time spent up to now is       32.6 secs

     total energy              =     -66.17026057 Ry
     estimated scf accuracy    <       0.00000028 Ry

     iteration # 17     ecut=   170.00 Ry     beta= 0.70
     CG style diagonalization
     ethr =  5.13E-11,  avg # of iterations =  3.1

     total cpu time spent up to now is       33.5 secs

     total energy              =     -66.17026047 Ry
     estimated scf accuracy    <       0.00000031 Ry

     iteration # 18     ecut=   170.00 Ry     beta= 0.70
     CG style diagonalization
     ethr =  5.13E-11,  avg # of iterations =  4.4

     total cpu time spent up to now is       34.6 secs

     total energy              =     -66.17026042 Ry
     estimated scf accuracy    <       0.00000010 Ry

     iteration # 19     ecut=   170.00 Ry     beta= 0.70
     CG style diagonalization
     ethr =  5.13E-11,  avg # of iterations =  5.6

     total cpu time spent up to now is       35.8 secs

     total energy              =     -66.17026045 Ry
     estimated scf accuracy    <          4.5E-09 Ry

     iteration # 20     ecut=   170.00 Ry     beta= 0.70
     CG style diagonalization
     ethr =  4.48E-11,  avg # of iterations =  3.3

     total cpu time spent up to now is       36.7 secs

     total energy              =     -66.17026045 Ry
     estimated scf accuracy    <          1.0E-09 Ry

     iteration # 21     ecut=   170.00 Ry     beta= 0.70
     CG style diagonalization
     ethr =  1.01E-11,  avg # of iterations =  4.8

     total cpu time spent up to now is       37.8 secs

     total energy              =     -66.17026045 Ry
     estimated scf accuracy    <       0.00000001 Ry

     iteration # 22     ecut=   170.00 Ry     beta= 0.70
     CG style diagonalization
     ethr =  1.01E-11,  avg # of iterations =  5.7

     total cpu time spent up to now is       39.0 secs

     total energy              =     -66.17026045 Ry
     estimated scf accuracy    <          8.6E-09 Ry

     iteration # 23     ecut=   170.00 Ry     beta= 0.70
     CG style diagonalization
     ethr =  1.01E-11,  avg # of iterations =  4.0

     total cpu time spent up to now is       40.0 secs

     End of self-consistent calculation

          k = 0.0000 0.0000 0.0000 (  3839 PWs)   bands (ev):

     7.1192  13.2215  13.2215  13.2215  15.2319  15.2319  32.6805  37.4540
    37.4540

          k =-0.1250 0.1250-0.1250 (  3864 PWs)   bands (ev):

     7.7133  13.0009  13.4323  13.4323  15.1429  15.1429  33.4483  34.6842
    38.2554

          k =-0.2500 0.2500-0.2500 (  3885 PWs)   bands (ev):

     9.1049  12.9348  13.5732  13.5732  15.4240  15.4240  30.3723  34.0998
    39.6855

          k =-0.3750 0.3750-0.3750 (  3879 PWs)   bands (ev):

     9.8490  13.3007  13.3007  14.6305  16.3332  16.3332  25.6150  32.7201
    37.7352

          k = 0.5000-0.5000 0.5000 (  3852 PWs)   bands (ev):

     9.8825  13.1484  13.1484  16.6944  16.8300  16.8300  22.5973  32.0741
    36.4955

          k = 0.0000 0.2500 0.0000 (  3871 PWs)   bands (ev):

     7.9157  12.7407  13.6367  13.6367  14.7092  15.4384  33.8160  35.7071
    37.0654

          k =-0.1250 0.3750-0.1250 (  3898 PWs)   bands (ev):

     9.1080  12.3630  13.6975  13.9789  14.8598  15.7583  32.2600  34.8391
    36.5250

          k =-0.2500 0.5000-0.2500 (  3877 PWs)   bands (ev):

    10.2029  12.9159  13.1579  13.8330  16.4795  16.5123  27.3740  33.6918
    35.6123

          k = 0.6250-0.3750 0.6250 (  3903 PWs)   bands (ev):

    10.3348  12.8116  13.5730  14.4854  16.8640  18.8669  22.9821  32.6676
    35.3949

          k = 0.5000-0.2500 0.5000 (  3896 PWs)   bands (ev):

    10.3703  12.9237  13.5637  14.2684  16.2012  18.3706  24.3399  32.6689
    34.5342

          k = 0.3750-0.1250 0.3750 (  3887 PWs)   bands (ev):

    10.0147  12.6973  13.3883  13.8513  15.0430  16.7954  29.0568  33.4887
    35.9132

          k = 0.2500 0.0000 0.2500 (  3885 PWs)   bands (ev):

     8.6268  12.6447  13.6446  13.7819  14.6689  15.6491  32.9787  34.1413
    36.9581

          k = 0.0000 0.5000 0.0000 (  3928 PWs)   bands (ev):

     9.7903  11.7252  13.9990  14.8091  14.8091  15.9624  34.1507  34.1507
    34.7963

          k =-0.1250 0.6250-0.1250 (  3912 PWs)   bands (ev):

    10.5995  11.4841  13.7054  15.0345  16.5951  16.6337  29.4136  32.6603
    33.1587

          k = 0.7500-0.2500 0.7500 (  3905 PWs)   bands (ev):

    10.8984  11.9933  13.5272  14.7313  16.9525  19.9046  24.3913  30.9634
    32.6978

          k = 0.6250-0.1250 0.6250 (  3906 PWs)   bands (ev):

    11.2532  12.3339  13.3816  14.4855  16.2579  20.7865  24.0421  29.2377
    34.7805

          k = 0.5000 0.0000 0.5000 (  3891 PWs)   bands (ev):

    11.3514  12.4452  12.8185  14.3742  15.1874  18.6742  27.7323  29.7324
    35.2794

          k = 0.0000 0.7500 0.0000 (  3928 PWs)   bands (ev):

    10.3449  10.8569  16.0548  16.3842  16.3842  16.5279  29.7771  30.3764
    30.3764

          k = 0.8750-0.1250 0.8750 (  3917 PWs)   bands (ev):

    10.4342  10.8863  15.4289  16.1611  17.0792  19.7735  25.8563  28.6138
    29.9088

          k = 0.7500 0.0000 0.7500 (  3907 PWs)   bands (ev):

    10.8764  11.6377  14.1650  15.5523  16.6528  22.7972  23.5899  26.8453
    31.7464

          k = 0.0000-1.0000 0.0000 (  3892 PWs)   bands (ev):

    10.0956  10.5294  16.7763  17.2686  17.2686  18.9334  25.5971  28.6499
    28.6499

          k =-0.2500 0.5000 0.0000 (  3893 PWs)   bands (ev):

    10.3472  11.9848  13.2130  14.8152  14.8854  16.8435  30.5422  32.5632
    35.2890

          k = 0.6250-0.3750 0.8750 (  3896 PWs)   bands (ev):

    11.0993  12.4626  12.7533  14.5235  16.1217  18.7578  26.1944  31.3089
    33.4480

          k = 0.5000-0.2500 0.7500 (  3906 PWs)   bands (ev):

    11.1088  12.2528  13.6009  14.2655  16.6287  21.3288  22.3798  31.6426
    32.2227

          k = 0.7500-0.2500 1.0000 (  3924 PWs)   bands (ev):

    10.9505  11.3036  13.7401  15.9283  16.3740  18.9593  27.5033  29.3624
    31.1239

          k = 0.6250-0.1250 0.8750 (  3906 PWs)   bands (ev):

    11.2609  11.8206  13.3433  15.2442  16.8765  22.2198  24.0483  28.0847
    30.3276

          k = 0.5000 0.0000 0.7500 (  3894 PWs)   bands (ev):

    11.8253  12.1642  12.5574  14.9661  16.3845  21.0174  26.3769  26.7322
    31.9600

          k =-0.2500-1.0000 0.0000 (  3908 PWs)   bands (ev):

    10.6511  11.0363  14.8738  15.9918  17.2702  21.7674  24.6652  27.7653
    28.7813

          k =-0.5000-1.0000 0.0000 (  3884 PWs)   bands (ev):

    11.4477  12.5234  12.5234  14.9340  17.2718  24.0691  25.2118  25.2118
    28.7766

     the Fermi energy is    16.7694 ev

!    total energy              =     -66.17026045 Ry
     estimated scf accuracy    <          4.1E-10 Ry
     smearing contrib. (-TS)   =      -0.00526738 Ry
     internal energy E=F+TS    =     -66.16499307 Ry

     The total energy is F=E-TS. E is the sum of the following terms:
     one-electron contribution =      15.56399110 Ry
     hartree contribution      =       4.42434886 Ry
     xc contribution           =     -24.77633070 Ry
     ewald contribution        =     -61.37700233 Ry

     convergence has been achieved in  23 iterations

     Writing all to output data dir ./Ptbulk.save/
 
     init_run     :     15.57s CPU     15.61s WALL (       1 calls)
     electrons    :     23.44s CPU     24.09s WALL (       1 calls)

     Called by init_run:
     wfcinit      :      0.09s CPU      0.10s WALL (       1 calls)
     potinit      :     14.02s CPU     14.05s WALL (       1 calls)
     hinit0       :      1.41s CPU      1.41s WALL (       1 calls)

     Called by electrons:
     c_bands      :     10.42s CPU     10.44s WALL (      24 calls)
     sum_band     :      1.78s CPU      1.79s WALL (      24 calls)
     v_of_rho     :     22.81s CPU     23.40s WALL (      24 calls)
     newd         :      0.47s CPU      0.47s WALL (      24 calls)
     mix_rho      :      0.30s CPU      0.30s WALL (      24 calls)
     vdW_kernel   :     11.95s CPU     11.96s WALL (       1 calls)

     Called by c_bands:
     init_us_2    :      0.17s CPU      0.17s WALL (      98 calls)
     init_us_2:cp :      0.17s CPU      0.17s WALL (      98 calls)
     ccgdiagg     :      7.43s CPU      7.44s WALL (      48 calls)
     wfcrot       :      2.00s CPU      2.01s WALL (      46 calls)

     Called by *cgdiagg:
     h_psi        :      8.46s CPU      8.50s WALL (    1418 calls)
     s_psi        :      0.32s CPU      0.31s WALL (    2790 calls)

     Called by h_psi:
     h_psi:calbec :      0.32s CPU      0.32s WALL (    1418 calls)
     vloc_psi     :      7.94s CPU      7.96s WALL (    1418 calls)
     add_vuspsi   :      0.17s CPU      0.19s WALL (    1418 calls)
     hs_1psi      :      6.77s CPU      6.79s WALL (    1372 calls)
     s_1psi       :      0.29s CPU      0.30s WALL (    1372 calls)

     General routines
     calbec       :      0.50s CPU      0.51s WALL (    2838 calls)
     fft          :      2.97s CPU      2.97s WALL (    1465 calls)
     ffts         :      0.05s CPU      0.05s WALL (      24 calls)
     fftw         :      7.76s CPU      7.77s WALL (    4004 calls)
 
     Parallel routines
 
     PWSCF        :     39.22s CPU     41.01s WALL

 
   This run was terminated on:  10:48:57   7Oct2022            

=------------------------------------------------------------------------------=
   JOB DONE.
=------------------------------------------------------------------------------=
