
     Program PWSCF v.7.1 starts on  7Oct2022 at 10:19:54 

     This program is part of the open-source Quantum ESPRESSO suite
     for quantum simulation of materials; please cite
         "P. Giannozzi et al., J. Phys.:Condens. Matter 21 395502 (2009);
         "P. Giannozzi et al., J. Phys.:Condens. Matter 29 465901 (2017);
         "P. Giannozzi et al., J. Chem. Phys. 152 154105 (2020);
          URL http://www.quantum-espresso.org", 
     in publications or presentations arising from this work. More details at
     http://www.quantum-espresso.org/quote

     Parallel version (MPI), running on    24 processors

     MPI processes distributed on     3 nodes
     94739 MiB available memory on the printing compute node when the environment starts
 
     Waiting for input...
     Reading input from standard input

     Current dimensions of program PWSCF are:
     Max number of different atomic species (ntypx) = 10
     Max number of k-points (npk) =  40000
     Max angular momentum in pseudopotentials (lmaxx) =  4
     file Pt.pbe-n-rrkjus_psl.1.0.0.UPF: wavefunction(s)  6S renormalized

     **************************************************************************
     Initializing libbeef V0.1.2 with the BEEF-vdW functional.
     Citation: Wellendorff et al., PRB 85, 235149 (2012).
     **************************************************************************


     IMPORTANT: XC functional enforced from input :
     Exchange-correlation= BEEF-VDW
                           (   1   4  43  14   2   0   0)
     Any further DFT definition will be discarded
     Please, verify this is what you really want

 
     K-points division:     npool     =      24
     Subspace diagonalization in iterative solution of the eigenvalue problem:
     a serial algorithm will be used

 
     G-vector sticks info
     --------------------
     sticks:   dense  smooth     PW     G-vecs:    dense   smooth      PW
     Sum        1285    1285    379                30395    30395    4909
 
     Using Slab Decomposition
 


     bravais-lattice index     =            2
     lattice parameter (alat)  =       7.4000  a.u.
     unit-cell volume          =     101.3060 (a.u.)^3
     number of atoms/cell      =            1
     number of atomic types    =            1
     number of electrons       =        10.00
     number of Kohn-Sham states=            9
     kinetic-energy cutoff     =     170.0000  Ry
     charge density cutoff     =     680.0000  Ry
     scf convergence threshold =      1.0E-09
     mixing beta               =       0.7000
     number of iterations used =            8  plain     mixing
     Exchange-correlation= BEEF-VDW
                           (   1   4  43  14   2   0   0)

     celldm(1)=   7.400000  celldm(2)=   0.000000  celldm(3)=   0.000000
     celldm(4)=   0.000000  celldm(5)=   0.000000  celldm(6)=   0.000000

     crystal axes: (cart. coord. in units of alat)
               a(1) = (  -0.500000   0.000000   0.500000 )  
               a(2) = (   0.000000   0.500000   0.500000 )  
               a(3) = (  -0.500000   0.500000   0.000000 )  

     reciprocal axes: (cart. coord. in units 2 pi/alat)
               b(1) = ( -1.000000 -1.000000  1.000000 )  
               b(2) = (  1.000000  1.000000  1.000000 )  
               b(3) = ( -1.000000  1.000000 -1.000000 )  


     PseudoPot. # 1 for Pt read from file:
     ./pseudo/Pt.pbe-n-rrkjus_psl.1.0.0.UPF
     MD5 check sum: 6bc887cfe28d63a5fc1f72d35a7d3ef7
     Pseudo is Ultrasoft + core correction, Zval = 10.0
     Generated using &quot;atomic&quot; code by A. Dal Corso  v.6.3
     Using radial grid of 1277 points,  6 beta functions with: 
                l(1) =   0
                l(2) =   0
                l(3) =   1
                l(4) =   1
                l(5) =   2
                l(6) =   2
     Q(r) pseudized with 0 coefficients 


     atomic species   valence    mass     pseudopotential
        Pt            10.00   195.07800     Pt( 1.00)

     48 Sym. Ops., with inversion, found



   Cartesian axes

     site n.     atom                  positions (alat units)
         1           Pt  tau(   1) = (   0.0000000   0.0000000   0.0000000  )

     number of k points=    29  Gaussian smearing, width (Ry)=  0.0200
                       cart. coord. in units 2pi/alat
        k(    1) = (   0.0000000   0.0000000   0.0000000), wk =   0.0039062
        k(    2) = (  -0.1250000   0.1250000  -0.1250000), wk =   0.0312500
        k(    3) = (  -0.2500000   0.2500000  -0.2500000), wk =   0.0312500
        k(    4) = (  -0.3750000   0.3750000  -0.3750000), wk =   0.0312500
        k(    5) = (   0.5000000  -0.5000000   0.5000000), wk =   0.0156250
        k(    6) = (   0.0000000   0.2500000   0.0000000), wk =   0.0234375
        k(    7) = (  -0.1250000   0.3750000  -0.1250000), wk =   0.0937500
        k(    8) = (  -0.2500000   0.5000000  -0.2500000), wk =   0.0937500
        k(    9) = (   0.6250000  -0.3750000   0.6250000), wk =   0.0937500
        k(   10) = (   0.5000000  -0.2500000   0.5000000), wk =   0.0937500
        k(   11) = (   0.3750000  -0.1250000   0.3750000), wk =   0.0937500
        k(   12) = (   0.2500000   0.0000000   0.2500000), wk =   0.0468750
        k(   13) = (   0.0000000   0.5000000   0.0000000), wk =   0.0234375
        k(   14) = (  -0.1250000   0.6250000  -0.1250000), wk =   0.0937500
        k(   15) = (   0.7500000  -0.2500000   0.7500000), wk =   0.0937500
        k(   16) = (   0.6250000  -0.1250000   0.6250000), wk =   0.0937500
        k(   17) = (   0.5000000   0.0000000   0.5000000), wk =   0.0468750
        k(   18) = (   0.0000000   0.7500000   0.0000000), wk =   0.0234375
        k(   19) = (   0.8750000  -0.1250000   0.8750000), wk =   0.0937500
        k(   20) = (   0.7500000   0.0000000   0.7500000), wk =   0.0468750
        k(   21) = (   0.0000000  -1.0000000   0.0000000), wk =   0.0117188
        k(   22) = (  -0.2500000   0.5000000   0.0000000), wk =   0.0937500
        k(   23) = (   0.6250000  -0.3750000   0.8750000), wk =   0.1875000
        k(   24) = (   0.5000000  -0.2500000   0.7500000), wk =   0.0937500
        k(   25) = (   0.7500000  -0.2500000   1.0000000), wk =   0.0937500
        k(   26) = (   0.6250000  -0.1250000   0.8750000), wk =   0.1875000
        k(   27) = (   0.5000000   0.0000000   0.7500000), wk =   0.0937500
        k(   28) = (  -0.2500000  -1.0000000   0.0000000), wk =   0.0468750
        k(   29) = (  -0.5000000  -1.0000000   0.0000000), wk =   0.0234375

     Dense  grid:    30395 G-vectors     FFT dimensions: (  45,  45,  45)

     Estimated max dynamical RAM per process >      27.65 MB

     Estimated total dynamical RAM >     492.87 MB

     Initial potential from superposition of free atoms

     starting charge       9.9998, renormalised to      10.0000


     %%%%%%%%%%%%%%%%%%%%%%%%%%%%%%%%%%%%%%%%%%%%%%%%%%%%%%%%%%%%%%%%%%%%%%%%
     %                                                                      %
     % You are using vdW-DF, which was implemented by the Thonhauser group. %
     % Please cite the following two papers that made this development      %
     % possible and the two reviews that describe the various versions:     %
     %                                                                      %
     %   T. Thonhauser et al., PRL 115, 136402 (2015).                      %
     %   T. Thonhauser et al., PRB 76, 125112 (2007).                       %
     %   K. Berland et al., Rep. Prog. Phys. 78, 066501 (2015).             %
     %   D.C. Langreth et al., J. Phys.: Condens. Matter 21, 084203 (2009). %
     %                                                                      %
     % If you are calculating stress with vdW-DF, please also cite:         %
     %                                                                      %
     %   R. Sabatini et al., J. Phys.: Condens. Matter 24, 424209 (2012).   %
     %                                                                      %
     %%%%%%%%%%%%%%%%%%%%%%%%%%%%%%%%%%%%%%%%%%%%%%%%%%%%%%%%%%%%%%%%%%%%%%%%

     %%%%%%%%%%%%%%%%%%%%%%%%%%%%%%%%%%%%%%%%%%%%%%%%%%%%%%%%%%%%%%%%%%%%%%%%
     %                                                                      %
     %  vdW-DF NEWS:                                                        %
     %                                                                      %
     %  * vdW-DF3 is now available. DOI: 10.1021/acs.jctc.0c00471           %
     %    use with input_dft = 'vdW-DF3-opt1' or 'vdW-DF3-opt2'             %
     %                                                                      %
     %  * Unscreened and range-separated vdW-DF hybrid functionals          %
     %    DOI: 10.1063/1.4986522 and 10.1088/1361-648X/ac2ad2               %
     %    use with input_dft = 'vdW-DF-cx0' (etc) and 'vdW-DF-ahcx'         %
     %                                                                      %
     %%%%%%%%%%%%%%%%%%%%%%%%%%%%%%%%%%%%%%%%%%%%%%%%%%%%%%%%%%%%%%%%%%%%%%%%


     Starting wfcs are    9 randomized atomic wfcs

     total cpu time spent up to now is       16.8 secs

     Self-consistent Calculation

     iteration #  1     ecut=   170.00 Ry     beta= 0.70
     CG style diagonalization
     ethr =  1.00E-02,  avg # of iterations =  3.7

     Threshold (ethr) on eigenvalues was too large:
     Diagonalizing with lowered threshold

     CG style diagonalization
     c_bands:  1 eigenvalues not converged
     ethr =  9.65E-05,  avg # of iterations =  6.3

     total cpu time spent up to now is       18.7 secs

     total energy              =     -66.16154285 Ry
     estimated scf accuracy    <       0.03098143 Ry

     iteration #  2     ecut=   170.00 Ry     beta= 0.70
     CG style diagonalization
     ethr =  3.10E-04,  avg # of iterations =  3.1

     total cpu time spent up to now is       19.6 secs

     total energy              =     -66.16654136 Ry
     estimated scf accuracy    <       0.00088566 Ry

     iteration #  3     ecut=   170.00 Ry     beta= 0.70
     CG style diagonalization
     ethr =  8.86E-06,  avg # of iterations =  5.6

     total cpu time spent up to now is       20.8 secs

     total energy              =     -66.16744341 Ry
     estimated scf accuracy    <       0.00020721 Ry

     iteration #  4     ecut=   170.00 Ry     beta= 0.70
     CG style diagonalization
     ethr =  2.07E-06,  avg # of iterations =  4.1

     total cpu time spent up to now is       21.9 secs

     total energy              =     -66.16745064 Ry
     estimated scf accuracy    <       0.00015240 Ry

     iteration #  5     ecut=   170.00 Ry     beta= 0.70
     CG style diagonalization
     ethr =  1.52E-06,  avg # of iterations =  3.3

     total cpu time spent up to now is       22.8 secs

     total energy              =     -66.16749168 Ry
     estimated scf accuracy    <       0.00000099 Ry

     iteration #  6     ecut=   170.00 Ry     beta= 0.70
     CG style diagonalization
     ethr =  9.87E-09,  avg # of iterations =  5.7

     total cpu time spent up to now is       24.0 secs

     total energy              =     -66.16749724 Ry
     estimated scf accuracy    <       0.00000101 Ry

     iteration #  7     ecut=   170.00 Ry     beta= 0.70
     CG style diagonalization
     ethr =  9.87E-09,  avg # of iterations =  3.0

     total cpu time spent up to now is       24.9 secs

     total energy              =     -66.16749670 Ry
     estimated scf accuracy    <       0.00000082 Ry

     iteration #  8     ecut=   170.00 Ry     beta= 0.70
     CG style diagonalization
     ethr =  8.20E-09,  avg # of iterations =  3.4

     total cpu time spent up to now is       25.8 secs

     total energy              =     -66.16749697 Ry
     estimated scf accuracy    <       0.00000006 Ry

     iteration #  9     ecut=   170.00 Ry     beta= 0.70
     CG style diagonalization
     ethr =  5.85E-10,  avg # of iterations =  4.2

     total cpu time spent up to now is       26.9 secs

     total energy              =     -66.16749700 Ry
     estimated scf accuracy    <       0.00000005 Ry

     iteration # 10     ecut=   170.00 Ry     beta= 0.70
     CG style diagonalization
     ethr =  5.26E-10,  avg # of iterations =  3.0

     total cpu time spent up to now is       27.8 secs

     total energy              =     -66.16749697 Ry
     estimated scf accuracy    <       0.00000004 Ry

     iteration # 11     ecut=   170.00 Ry     beta= 0.70
     CG style diagonalization
     ethr =  3.62E-10,  avg # of iterations =  3.4

     total cpu time spent up to now is       28.7 secs

     total energy              =     -66.16749698 Ry
     estimated scf accuracy    <       0.00000001 Ry

     iteration # 12     ecut=   170.00 Ry     beta= 0.70
     CG style diagonalization
     ethr =  1.17E-10,  avg # of iterations =  3.4

     total cpu time spent up to now is       29.7 secs

     total energy              =     -66.16749698 Ry
     estimated scf accuracy    <          1.1E-09 Ry

     iteration # 13     ecut=   170.00 Ry     beta= 0.70
     CG style diagonalization
     ethr =  1.08E-11,  avg # of iterations =  3.4

     total cpu time spent up to now is       30.6 secs

     End of self-consistent calculation

          k = 0.0000 0.0000 0.0000 (  3767 PWs)   bands (ev):

     7.5099  13.7550  13.7550  13.7550  15.8643  15.8643  33.3561  38.3019
    38.3019

          k =-0.1250 0.1250-0.1250 (  3773 PWs)   bands (ev):

     8.1201  13.5223  13.9750  13.9750  15.7690  15.7690  34.1808  35.5107
    39.1523

          k =-0.2500 0.2500-0.2500 (  3783 PWs)   bands (ev):

     9.5380  13.4531  14.1215  14.1215  16.0610  16.0610  31.2757  34.8784
    40.7608

          k =-0.3750 0.3750-0.3750 (  3792 PWs)   bands (ev):

    10.2703  13.8356  13.8356  15.2032  17.0165  17.0165  26.5391  33.4297
    38.7549

          k = 0.5000-0.5000 0.5000 (  3798 PWs)   bands (ev):

    10.2946  13.6762  13.6762  17.2864  17.5409  17.5409  23.5202  32.7516
    37.4542

          k = 0.0000 0.2500 0.0000 (  3787 PWs)   bands (ev):

     8.3281  13.2494  14.1887  14.1887  15.3116  16.0805  34.5546  36.5322
    37.9910

          k =-0.1250 0.3750-0.1250 (  3777 PWs)   bands (ev):

     9.5473  12.8539  14.2493  14.5462  15.4674  16.4146  33.1666  35.6567
    37.5390

          k =-0.2500 0.5000-0.2500 (  3795 PWs)   bands (ev):

    10.6433  13.4321  13.6854  14.3926  17.1553  17.2063  28.3009  34.4701
    36.6261

          k = 0.6250-0.3750 0.6250 (  3782 PWs)   bands (ev):

    10.7625  13.3200  14.1197  15.0604  17.5766  19.5949  23.8833  33.4222
    36.3700

          k = 0.5000-0.2500 0.5000 (  3793 PWs)   bands (ev):

    10.8029  13.4380  14.1096  14.8337  16.8767  19.1163  25.2484  33.4731
    35.4561

          k = 0.3750-0.1250 0.3750 (  3785 PWs)   bands (ev):

    10.4642  13.2061  13.9239  14.4110  15.6593  17.4984  29.9851  34.3924
    36.8369

          k = 0.2500 0.0000 0.2500 (  3777 PWs)   bands (ev):

     9.0565  13.1484  14.1958  14.3399  15.2687  16.2991  33.8357  34.9950
    37.8609

          k = 0.0000 0.5000 0.0000 (  3767 PWs)   bands (ev):

    10.2377  12.1865  14.5645  15.4144  15.4144  16.6300  35.1338  35.1338
    35.6520

          k =-0.1250 0.6250-0.1250 (  3794 PWs)   bands (ev):

    11.0429  11.9371  14.2597  15.6505  17.2943  17.3146  30.3482  33.6116
    34.1245

          k = 0.7500-0.2500 0.7500 (  3799 PWs)   bands (ev):

    11.3354  12.4657  14.0731  15.3317  17.6700  20.6886  25.2488  31.9332
    33.6439

          k = 0.6250-0.1250 0.6250 (  3795 PWs)   bands (ev):

    11.7070  12.8202  13.9175  15.0733  16.9361  21.5857  24.9315  30.1904
    35.7931

          k = 0.5000 0.0000 0.5000 (  3787 PWs)   bands (ev):

    11.8298  12.9415  13.3244  14.9564  15.8109  19.4490  28.6442  30.7220
    36.1098

          k = 0.0000 0.7500 0.0000 (  3800 PWs)   bands (ev):

    10.7606  11.2818  16.6815  17.0675  17.0675  17.2246  30.8156  31.2604
    31.2604

          k = 0.8750-0.1250 0.8750 (  3807 PWs)   bands (ev):

    10.8444  11.3140  16.0509  16.8346  17.8030  20.5322  26.7576  29.5482
    30.7758

          k = 0.7500 0.0000 0.7500 (  3799 PWs)   bands (ev):

    11.3028  12.0983  14.7346  16.1925  17.3520  23.6238  24.4360  27.7966
    32.6793

          k = 0.0000-1.0000 0.0000 (  3812 PWs)   bands (ev):

    10.4916  10.9414  17.4863  18.0022  18.0022  19.5892  26.6095  29.4683
    29.4683

          k =-0.2500 0.5000 0.0000 (  3784 PWs)   bands (ev):

    10.8098  12.4589  13.7401  15.4207  15.4931  17.5491  31.4693  33.5690
    36.1961

          k = 0.6250-0.3750 0.8750 (  3798 PWs)   bands (ev):

    11.5572  12.9534  13.2663  15.1133  16.7907  19.5264  27.0987  32.2778
    34.3510

          k = 0.5000-0.2500 0.7500 (  3782 PWs)   bands (ev):

    11.5615  12.7330  14.1445  14.8432  17.3267  22.1093  23.2660  32.6334
    33.1196

          k = 0.7500-0.2500 1.0000 (  3801 PWs)   bands (ev):

    11.3874  11.7493  14.2950  16.5856  17.0569  19.7258  28.4113  30.2756
    32.0917

          k = 0.6250-0.1250 0.8750 (  3797 PWs)   bands (ev):

    11.7031  12.2891  13.8796  15.8673  17.5875  23.0677  24.8875  29.0309
    31.2636

          k = 0.5000 0.0000 0.7500 (  3786 PWs)   bands (ev):

    12.2886  12.6542  13.0593  15.5755  17.0685  21.8324  27.2917  27.6442
    32.9250

          k =-0.2500-1.0000 0.0000 (  3808 PWs)   bands (ev):

    11.0675  11.4713  15.4731  16.6547  18.0039  22.5513  25.6006  28.6123
    29.6946

          k =-0.5000-1.0000 0.0000 (  3828 PWs)   bands (ev):

    11.8934  13.0238  13.0238  15.5410  18.0057  24.9829  26.0651  26.0651
    29.7212

     the Fermi energy is    17.4707 ev

!    total energy              =     -66.16749698 Ry
     estimated scf accuracy    <          3.5E-11 Ry
     smearing contrib. (-TS)   =      -0.00500284 Ry
     internal energy E=F+TS    =     -66.16249415 Ry

     The total energy is F=E-TS. E is the sum of the following terms:
     one-electron contribution =      16.34744507 Ry
     hartree contribution      =       4.25280187 Ry
     xc contribution           =     -24.80514549 Ry
     ewald contribution        =     -61.95759560 Ry

     convergence has been achieved in  13 iterations

     Writing all to output data dir ./Ptbulk.save/
 
     init_run     :     16.26s CPU     16.30s WALL (       1 calls)
     electrons    :     13.50s CPU     14.04s WALL (       1 calls)

     Called by init_run:
     wfcinit      :      0.10s CPU      0.10s WALL (       1 calls)
     potinit      :     14.78s CPU     14.81s WALL (       1 calls)
     hinit0       :      1.33s CPU      1.34s WALL (       1 calls)

     Called by electrons:
     c_bands      :      6.08s CPU      6.11s WALL (      14 calls)
     sum_band     :      1.04s CPU      1.04s WALL (      14 calls)
     v_of_rho     :     18.30s CPU     18.64s WALL (      14 calls)
     newd         :      0.33s CPU      0.33s WALL (      14 calls)
     mix_rho      :      0.13s CPU      0.14s WALL (      14 calls)
     vdW_kernel   :     11.96s CPU     11.97s WALL (       1 calls)

     Called by c_bands:
     init_us_2    :      0.10s CPU      0.10s WALL (      58 calls)
     init_us_2:cp :      0.10s CPU      0.10s WALL (      58 calls)
     ccgdiagg     :      4.40s CPU      4.42s WALL (      28 calls)
     wfcrot       :      1.14s CPU      1.15s WALL (      26 calls)

     Called by *cgdiagg:
     h_psi        :      5.00s CPU      5.00s WALL (     847 calls)
     s_psi        :      0.18s CPU      0.18s WALL (    1668 calls)

     Called by h_psi:
     h_psi:calbec :      0.19s CPU      0.19s WALL (     847 calls)
     vloc_psi     :      4.68s CPU      4.68s WALL (     847 calls)
     add_vuspsi   :      0.11s CPU      0.11s WALL (     847 calls)
     hs_1psi      :      4.02s CPU      4.03s WALL (     821 calls)
     s_1psi       :      0.20s CPU      0.18s WALL (     821 calls)

     General routines
     calbec       :      0.32s CPU      0.30s WALL (    1696 calls)
     fft          :      1.73s CPU      1.73s WALL (     855 calls)
     ffts         :      0.03s CPU      0.03s WALL (      14 calls)
     fftw         :      4.57s CPU      4.57s WALL (    2362 calls)
 
     Parallel routines
 
     PWSCF        :     29.97s CPU     32.80s WALL

 
   This run was terminated on:  10:20:27   7Oct2022            

=------------------------------------------------------------------------------=
   JOB DONE.
=------------------------------------------------------------------------------=
