
     Program PWSCF v.7.1 starts on  7Oct2022 at 11: 7:19 

     This program is part of the open-source Quantum ESPRESSO suite
     for quantum simulation of materials; please cite
         "P. Giannozzi et al., J. Phys.:Condens. Matter 21 395502 (2009);
         "P. Giannozzi et al., J. Phys.:Condens. Matter 29 465901 (2017);
         "P. Giannozzi et al., J. Chem. Phys. 152 154105 (2020);
          URL http://www.quantum-espresso.org", 
     in publications or presentations arising from this work. More details at
     http://www.quantum-espresso.org/quote

     Parallel version (MPI), running on    24 processors

     MPI processes distributed on     3 nodes
     76094 MiB available memory on the printing compute node when the environment starts
 
     Waiting for input...
     Reading input from standard input

     Current dimensions of program PWSCF are:
     Max number of different atomic species (ntypx) = 10
     Max number of k-points (npk) =  40000
     Max angular momentum in pseudopotentials (lmaxx) =  4
     file Pt.pbe-n-rrkjus_psl.1.0.0.UPF: wavefunction(s)  6S renormalized

     **************************************************************************
     Initializing libbeef V0.1.2 with the BEEF-vdW functional.
     Citation: Wellendorff et al., PRB 85, 235149 (2012).
     **************************************************************************


     IMPORTANT: XC functional enforced from input :
     Exchange-correlation= BEEF-VDW
                           (   1   4  43  14   2   0   0)
     Any further DFT definition will be discarded
     Please, verify this is what you really want

 
     K-points division:     npool     =      24
     Subspace diagonalization in iterative solution of the eigenvalue problem:
     a serial algorithm will be used

 
     G-vector sticks info
     --------------------
     sticks:   dense  smooth     PW     G-vecs:    dense   smooth      PW
     Sum        1357    1357    385                32743    32743    5065
 
     Using Slab Decomposition
 


     bravais-lattice index     =            2
     lattice parameter (alat)  =       7.5900  a.u.
     unit-cell volume          =     109.3114 (a.u.)^3
     number of atoms/cell      =            1
     number of atomic types    =            1
     number of electrons       =        10.00
     number of Kohn-Sham states=            9
     kinetic-energy cutoff     =     170.0000  Ry
     charge density cutoff     =     680.0000  Ry
     scf convergence threshold =      1.0E-09
     mixing beta               =       0.7000
     number of iterations used =            8  plain     mixing
     Exchange-correlation= BEEF-VDW
                           (   1   4  43  14   2   0   0)

     celldm(1)=   7.590000  celldm(2)=   0.000000  celldm(3)=   0.000000
     celldm(4)=   0.000000  celldm(5)=   0.000000  celldm(6)=   0.000000

     crystal axes: (cart. coord. in units of alat)
               a(1) = (  -0.500000   0.000000   0.500000 )  
               a(2) = (   0.000000   0.500000   0.500000 )  
               a(3) = (  -0.500000   0.500000   0.000000 )  

     reciprocal axes: (cart. coord. in units 2 pi/alat)
               b(1) = ( -1.000000 -1.000000  1.000000 )  
               b(2) = (  1.000000  1.000000  1.000000 )  
               b(3) = ( -1.000000  1.000000 -1.000000 )  


     PseudoPot. # 1 for Pt read from file:
     ./pseudo/Pt.pbe-n-rrkjus_psl.1.0.0.UPF
     MD5 check sum: 6bc887cfe28d63a5fc1f72d35a7d3ef7
     Pseudo is Ultrasoft + core correction, Zval = 10.0
     Generated using &quot;atomic&quot; code by A. Dal Corso  v.6.3
     Using radial grid of 1277 points,  6 beta functions with: 
                l(1) =   0
                l(2) =   0
                l(3) =   1
                l(4) =   1
                l(5) =   2
                l(6) =   2
     Q(r) pseudized with 0 coefficients 


     atomic species   valence    mass     pseudopotential
        Pt            10.00   195.07800     Pt( 1.00)

     48 Sym. Ops., with inversion, found



   Cartesian axes

     site n.     atom                  positions (alat units)
         1           Pt  tau(   1) = (   0.0000000   0.0000000   0.0000000  )

     number of k points=    29  Gaussian smearing, width (Ry)=  0.0200
                       cart. coord. in units 2pi/alat
        k(    1) = (   0.0000000   0.0000000   0.0000000), wk =   0.0039062
        k(    2) = (  -0.1250000   0.1250000  -0.1250000), wk =   0.0312500
        k(    3) = (  -0.2500000   0.2500000  -0.2500000), wk =   0.0312500
        k(    4) = (  -0.3750000   0.3750000  -0.3750000), wk =   0.0312500
        k(    5) = (   0.5000000  -0.5000000   0.5000000), wk =   0.0156250
        k(    6) = (   0.0000000   0.2500000   0.0000000), wk =   0.0234375
        k(    7) = (  -0.1250000   0.3750000  -0.1250000), wk =   0.0937500
        k(    8) = (  -0.2500000   0.5000000  -0.2500000), wk =   0.0937500
        k(    9) = (   0.6250000  -0.3750000   0.6250000), wk =   0.0937500
        k(   10) = (   0.5000000  -0.2500000   0.5000000), wk =   0.0937500
        k(   11) = (   0.3750000  -0.1250000   0.3750000), wk =   0.0937500
        k(   12) = (   0.2500000   0.0000000   0.2500000), wk =   0.0468750
        k(   13) = (   0.0000000   0.5000000   0.0000000), wk =   0.0234375
        k(   14) = (  -0.1250000   0.6250000  -0.1250000), wk =   0.0937500
        k(   15) = (   0.7500000  -0.2500000   0.7500000), wk =   0.0937500
        k(   16) = (   0.6250000  -0.1250000   0.6250000), wk =   0.0937500
        k(   17) = (   0.5000000   0.0000000   0.5000000), wk =   0.0468750
        k(   18) = (   0.0000000   0.7500000   0.0000000), wk =   0.0234375
        k(   19) = (   0.8750000  -0.1250000   0.8750000), wk =   0.0937500
        k(   20) = (   0.7500000   0.0000000   0.7500000), wk =   0.0468750
        k(   21) = (   0.0000000  -1.0000000   0.0000000), wk =   0.0117188
        k(   22) = (  -0.2500000   0.5000000   0.0000000), wk =   0.0937500
        k(   23) = (   0.6250000  -0.3750000   0.8750000), wk =   0.1875000
        k(   24) = (   0.5000000  -0.2500000   0.7500000), wk =   0.0937500
        k(   25) = (   0.7500000  -0.2500000   1.0000000), wk =   0.0937500
        k(   26) = (   0.6250000  -0.1250000   0.8750000), wk =   0.1875000
        k(   27) = (   0.5000000   0.0000000   0.7500000), wk =   0.0937500
        k(   28) = (  -0.2500000  -1.0000000   0.0000000), wk =   0.0468750
        k(   29) = (  -0.5000000  -1.0000000   0.0000000), wk =   0.0234375

     Dense  grid:    32743 G-vectors     FFT dimensions: (  45,  45,  45)

     Estimated max dynamical RAM per process >      29.14 MB

     Estimated total dynamical RAM >     515.59 MB

     Initial potential from superposition of free atoms

     starting charge       9.9998, renormalised to      10.0000


     %%%%%%%%%%%%%%%%%%%%%%%%%%%%%%%%%%%%%%%%%%%%%%%%%%%%%%%%%%%%%%%%%%%%%%%%
     %                                                                      %
     % You are using vdW-DF, which was implemented by the Thonhauser group. %
     % Please cite the following two papers that made this development      %
     % possible and the two reviews that describe the various versions:     %
     %                                                                      %
     %   T. Thonhauser et al., PRL 115, 136402 (2015).                      %
     %   T. Thonhauser et al., PRB 76, 125112 (2007).                       %
     %   K. Berland et al., Rep. Prog. Phys. 78, 066501 (2015).             %
     %   D.C. Langreth et al., J. Phys.: Condens. Matter 21, 084203 (2009). %
     %                                                                      %
     % If you are calculating stress with vdW-DF, please also cite:         %
     %                                                                      %
     %   R. Sabatini et al., J. Phys.: Condens. Matter 24, 424209 (2012).   %
     %                                                                      %
     %%%%%%%%%%%%%%%%%%%%%%%%%%%%%%%%%%%%%%%%%%%%%%%%%%%%%%%%%%%%%%%%%%%%%%%%

     %%%%%%%%%%%%%%%%%%%%%%%%%%%%%%%%%%%%%%%%%%%%%%%%%%%%%%%%%%%%%%%%%%%%%%%%
     %                                                                      %
     %  vdW-DF NEWS:                                                        %
     %                                                                      %
     %  * vdW-DF3 is now available. DOI: 10.1021/acs.jctc.0c00471           %
     %    use with input_dft = 'vdW-DF3-opt1' or 'vdW-DF3-opt2'             %
     %                                                                      %
     %  * Unscreened and range-separated vdW-DF hybrid functionals          %
     %    DOI: 10.1063/1.4986522 and 10.1088/1361-648X/ac2ad2               %
     %    use with input_dft = 'vdW-DF-cx0' (etc) and 'vdW-DF-ahcx'         %
     %                                                                      %
     %%%%%%%%%%%%%%%%%%%%%%%%%%%%%%%%%%%%%%%%%%%%%%%%%%%%%%%%%%%%%%%%%%%%%%%%


     Starting wfcs are    9 randomized atomic wfcs

     total cpu time spent up to now is       15.3 secs

     Self-consistent Calculation

     iteration #  1     ecut=   170.00 Ry     beta= 0.70
     CG style diagonalization
     ethr =  1.00E-02,  avg # of iterations =  3.6

     Threshold (ethr) on eigenvalues was too large:
     Diagonalizing with lowered threshold

     CG style diagonalization
     ethr =  1.14E-04,  avg # of iterations =  5.9

     total cpu time spent up to now is       17.1 secs

     total energy              =     -66.16417051 Ry
     estimated scf accuracy    <       0.03245034 Ry

     iteration #  2     ecut=   170.00 Ry     beta= 0.70
     CG style diagonalization
     ethr =  3.25E-04,  avg # of iterations =  3.2

     total cpu time spent up to now is       18.0 secs

     total energy              =     -66.17049926 Ry
     estimated scf accuracy    <       0.00189726 Ry

     iteration #  3     ecut=   170.00 Ry     beta= 0.70
     CG style diagonalization
     ethr =  1.90E-05,  avg # of iterations =  4.5

     total cpu time spent up to now is       19.1 secs

     total energy              =     -66.17156793 Ry
     estimated scf accuracy    <       0.00013564 Ry

     iteration #  4     ecut=   170.00 Ry     beta= 0.70
     CG style diagonalization
     ethr =  1.36E-06,  avg # of iterations =  5.0

     total cpu time spent up to now is       20.2 secs

     total energy              =     -66.17164112 Ry
     estimated scf accuracy    <       0.00001571 Ry

     iteration #  5     ecut=   170.00 Ry     beta= 0.70
     CG style diagonalization
     ethr =  1.57E-07,  avg # of iterations =  4.6

     total cpu time spent up to now is       21.3 secs

     total energy              =     -66.17165858 Ry
     estimated scf accuracy    <       0.00000759 Ry

     iteration #  6     ecut=   170.00 Ry     beta= 0.70
     CG style diagonalization
     ethr =  7.59E-08,  avg # of iterations =  3.2

     total cpu time spent up to now is       22.2 secs

     total energy              =     -66.17165967 Ry
     estimated scf accuracy    <       0.00000059 Ry

     iteration #  7     ecut=   170.00 Ry     beta= 0.70
     CG style diagonalization
     ethr =  5.94E-09,  avg # of iterations =  4.3

     total cpu time spent up to now is       23.2 secs

     total energy              =     -66.17166010 Ry
     estimated scf accuracy    <          1.6E-09 Ry

     iteration #  8     ecut=   170.00 Ry     beta= 0.70
     CG style diagonalization
     ethr =  1.65E-11,  avg # of iterations =  6.9

     total cpu time spent up to now is       24.5 secs

     total energy              =     -66.17166014 Ry
     estimated scf accuracy    <          4.3E-09 Ry

     iteration #  9     ecut=   170.00 Ry     beta= 0.70
     CG style diagonalization
     ethr =  1.65E-11,  avg # of iterations =  3.7

     total cpu time spent up to now is       25.4 secs

     End of self-consistent calculation

          k = 0.0000 0.0000 0.0000 (  4111 PWs)   bands (ev):

     6.4877  12.3507  12.3507  12.3507  14.2038  14.2038  31.5672  36.0515
    36.0515

          k =-0.1250 0.1250-0.1250 (  4083 PWs)   bands (ev):

     7.0557  12.1494  12.5467  12.5467  14.1245  14.1245  32.2334  33.3228
    36.7710

          k =-0.2500 0.2500-0.2500 (  4074 PWs)   bands (ev):

     8.4033  12.0903  12.6786  12.6786  14.3879  14.3879  28.8790  32.8346
    37.9127

          k =-0.3750 0.3750-0.3750 (  4104 PWs)   bands (ev):

     9.1622  12.4273  12.4273  13.7022  15.2237  15.2237  24.1132  31.5568
    36.0596

          k = 0.5000-0.5000 0.5000 (  4092 PWs)   bands (ev):

     9.2097  12.2866  12.2866  15.6773  15.6773  15.7385  21.1016  30.9586
    34.9176

          k = 0.0000 0.2500 0.0000 (  4084 PWs)   bands (ev):

     7.2492  11.9093  12.7364  12.7364  13.7281  14.3948  32.5998  34.3448
    35.5325

          k =-0.1250 0.3750-0.1250 (  4078 PWs)   bands (ev):

     8.3975  11.5607  12.7971  13.0542  13.8707  14.6920  30.7602  33.5013
    34.8599

          k =-0.2500 0.5000-0.2500 (  4073 PWs)   bands (ev):

     9.4864  12.0755  12.2968  12.9205  15.3822  15.3861  25.8635  32.4161
    33.9544

          k = 0.6250-0.3750 0.6250 (  4083 PWs)   bands (ev):

     9.6368  11.9806  12.6808  13.5510  15.7083  17.6888  21.5217  31.4178
    33.7947

          k = 0.5000-0.2500 0.5000 (  4105 PWs)   bands (ev):

     9.6650  12.0832  12.6726  13.3505  15.1040  17.1631  22.8668  31.3208
    33.0514

          k = 0.3750-0.1250 0.3750 (  4091 PWs)   bands (ev):

     9.2854  11.8681  12.5140  12.9382  14.0395  15.6551  27.5368  31.9915
    34.4256

          k = 0.2500 0.0000 0.2500 (  4067 PWs)   bands (ev):

     7.9322  11.8216  12.7456  12.8719  13.6919  14.5925  31.5578  32.7208
    35.4886

          k = 0.0000 0.5000 0.0000 (  4064 PWs)   bands (ev):

     9.0653  10.9697  13.0778  13.8235  13.8235  14.8781  32.5433  32.5433
    33.3932

          k =-0.1250 0.6250-0.1250 (  4089 PWs)   bands (ev):

     9.8771  10.7431  12.8034  14.0318  15.4610  15.5282  27.8881  31.1077
    31.5701

          k = 0.7500-0.2500 0.7500 (  4081 PWs)   bands (ev):

    10.1839  11.2218  12.6390  13.7533  15.7894  18.6331  22.9979  29.3781
    31.1524

          k = 0.6250-0.1250 0.6250 (  4102 PWs)   bands (ev):

    10.5120  11.5402  12.5100  13.5275  15.1564  19.4882  22.6020  27.6874
    33.1277

          k = 0.5000 0.0000 0.5000 (  4105 PWs)   bands (ev):

    10.5743  11.6356  11.9926  13.4249  14.1725  17.4192  26.2446  28.1280
    33.9146

          k = 0.0000 0.7500 0.0000 (  4092 PWs)   bands (ev):

     9.6649  10.1603  15.0392  15.2746  15.2746  15.3978  28.0881  28.9340
    28.9340

          k = 0.8750-0.1250 0.8750 (  4110 PWs)   bands (ev):

     9.7618  10.1857  14.4179  15.0671  15.9059  18.5463  24.3793  27.1054
    28.4938

          k = 0.7500 0.0000 0.7500 (  4089 PWs)   bands (ev):

    10.1776  10.8861  13.2389  14.5108  15.5180  21.4460  22.2227  25.3057
    30.2255

          k = 0.0000-1.0000 0.0000 (  4088 PWs)   bands (ev):

     9.4462   9.8539  15.6253  16.0800  16.0800  17.8739  23.9547  27.3126
    27.3126

          k =-0.2500 0.5000 0.0000 (  4087 PWs)   bands (ev):

     9.5979  11.2096  12.3520  13.8292  13.8961  15.6991  29.0214  30.9259
    33.8011

          k = 0.6250-0.3750 0.8750 (  4098 PWs)   bands (ev):

    10.3534  11.6607  11.9172  13.5626  15.0346  17.5128  24.7240  29.7285
    31.9607

          k = 0.5000-0.2500 0.7500 (  4102 PWs)   bands (ev):

    10.3705  11.4671  12.7168  13.3238  15.4958  20.0666  20.9403  30.0273
    30.7495

          k = 0.7500-0.2500 1.0000 (  4099 PWs)   bands (ev):

    10.2366  10.5744  12.8372  14.8600  15.2649  17.7182  26.0201  27.8754
    29.5494

          k = 0.6250-0.1250 0.8750 (  4102 PWs)   bands (ev):

    10.5370  11.0561  12.4702  14.2298  15.7233  20.8432  22.6847  26.5480
    28.8044

          k = 0.5000 0.0000 0.7500 (  4094 PWs)   bands (ev):

    11.0663  11.3674  11.7394  13.9737  15.2736  19.6939  24.8895  25.2545
    30.3862

          k =-0.2500-1.0000 0.0000 (  4106 PWs)   bands (ev):

     9.9690  10.3243  13.8996  14.9142  16.0814  20.5012  23.1388  26.3836
    27.3009

          k =-0.5000-1.0000 0.0000 (  4128 PWs)   bands (ev):

    10.7184  11.7077  11.7077  13.9450  16.0828  22.5810  23.8276  23.8276
    27.2434

     the Fermi energy is    15.6326 ev

!    total energy              =     -66.17166014 Ry
     estimated scf accuracy    <          7.0E-11 Ry
     smearing contrib. (-TS)   =      -0.00566267 Ry
     internal energy E=F+TS    =     -66.16599748 Ry

     The total energy is F=E-TS. E is the sum of the following terms:
     one-electron contribution =      14.24713555 Ry
     hartree contribution      =       4.72577582 Ry
     xc contribution           =     -24.73229391 Ry
     ewald contribution        =     -60.40661494 Ry

     convergence has been achieved in   9 iterations

     Writing all to output data dir ./Ptbulk.save/
 
     init_run     :     14.96s CPU     15.01s WALL (       1 calls)
     electrons    :      9.93s CPU     10.32s WALL (       1 calls)

     Called by init_run:
     wfcinit      :      0.09s CPU      0.10s WALL (       1 calls)
     potinit      :     13.56s CPU     13.61s WALL (       1 calls)
     hinit0       :      1.25s CPU      1.25s WALL (       1 calls)

     Called by electrons:
     c_bands      :      4.91s CPU      4.91s WALL (      10 calls)
     sum_band     :      0.71s CPU      0.72s WALL (      10 calls)
     v_of_rho     :     16.47s CPU     16.70s WALL (      10 calls)
     newd         :      0.20s CPU      0.18s WALL (      10 calls)
     mix_rho      :      0.09s CPU      0.08s WALL (      10 calls)
     vdW_kernel   :     11.99s CPU     11.99s WALL (       1 calls)

     Called by c_bands:
     init_us_2    :      0.06s CPU      0.08s WALL (      42 calls)
     init_us_2:cp :      0.06s CPU      0.08s WALL (      42 calls)
     ccgdiagg     :      3.42s CPU      3.43s WALL (      20 calls)
     wfcrot       :      0.82s CPU      0.79s WALL (      18 calls)

     Called by *cgdiagg:
     h_psi        :      3.74s CPU      3.75s WALL (     678 calls)
     s_psi        :      0.14s CPU      0.15s WALL (    1338 calls)

     Called by h_psi:
     h_psi:calbec :      0.08s CPU      0.12s WALL (     678 calls)
     vloc_psi     :      3.51s CPU      3.52s WALL (     678 calls)
     add_vuspsi   :      0.11s CPU      0.09s WALL (     678 calls)
     hs_1psi      :      3.07s CPU      3.10s WALL (     660 calls)
     s_1psi       :      0.16s CPU      0.15s WALL (     660 calls)

     General routines
     calbec       :      0.18s CPU      0.21s WALL (    1358 calls)
     fft          :      1.18s CPU      1.20s WALL (     611 calls)
     ffts         :      0.01s CPU      0.02s WALL (      10 calls)
     fftw         :      3.39s CPU      3.43s WALL (    1824 calls)
 
     Parallel routines
 
     PWSCF        :     25.10s CPU     26.69s WALL

 
   This run was terminated on:  11: 7:46   7Oct2022            

=------------------------------------------------------------------------------=
   JOB DONE.
=------------------------------------------------------------------------------=
