
     Program PWSCF v.7.1 starts on  7Oct2022 at 10:19:54 

     This program is part of the open-source Quantum ESPRESSO suite
     for quantum simulation of materials; please cite
         "P. Giannozzi et al., J. Phys.:Condens. Matter 21 395502 (2009);
         "P. Giannozzi et al., J. Phys.:Condens. Matter 29 465901 (2017);
         "P. Giannozzi et al., J. Chem. Phys. 152 154105 (2020);
          URL http://www.quantum-espresso.org", 
     in publications or presentations arising from this work. More details at
     http://www.quantum-espresso.org/quote

     Parallel version (MPI), running on    24 processors

     MPI processes distributed on     3 nodes
     93382 MiB available memory on the printing compute node when the environment starts
 
     Waiting for input...
     Reading input from standard input

     Current dimensions of program PWSCF are:
     Max number of different atomic species (ntypx) = 10
     Max number of k-points (npk) =  40000
     Max angular momentum in pseudopotentials (lmaxx) =  4
     file Pt.pbe-n-rrkjus_psl.1.0.0.UPF: wavefunction(s)  6S renormalized

     **************************************************************************
     Initializing libbeef V0.1.2 with the BEEF-vdW functional.
     Citation: Wellendorff et al., PRB 85, 235149 (2012).
     **************************************************************************


     IMPORTANT: XC functional enforced from input :
     Exchange-correlation= BEEF-VDW
                           (   1   4  43  14   2   0   0)
     Any further DFT definition will be discarded
     Please, verify this is what you really want

 
     K-points division:     npool     =      24
     Subspace diagonalization in iterative solution of the eigenvalue problem:
     a serial algorithm will be used

 
     G-vector sticks info
     --------------------
     sticks:   dense  smooth     PW     G-vecs:    dense   smooth      PW
     Sum        1285    1285    379                30467    30467    4909
 
     Using Slab Decomposition
 


     bravais-lattice index     =            2
     lattice parameter (alat)  =       7.4120  a.u.
     unit-cell volume          =     101.7996 (a.u.)^3
     number of atoms/cell      =            1
     number of atomic types    =            1
     number of electrons       =        10.00
     number of Kohn-Sham states=            9
     kinetic-energy cutoff     =     170.0000  Ry
     charge density cutoff     =     680.0000  Ry
     scf convergence threshold =      1.0E-09
     mixing beta               =       0.7000
     number of iterations used =            8  plain     mixing
     Exchange-correlation= BEEF-VDW
                           (   1   4  43  14   2   0   0)

     celldm(1)=   7.412000  celldm(2)=   0.000000  celldm(3)=   0.000000
     celldm(4)=   0.000000  celldm(5)=   0.000000  celldm(6)=   0.000000

     crystal axes: (cart. coord. in units of alat)
               a(1) = (  -0.500000   0.000000   0.500000 )  
               a(2) = (   0.000000   0.500000   0.500000 )  
               a(3) = (  -0.500000   0.500000   0.000000 )  

     reciprocal axes: (cart. coord. in units 2 pi/alat)
               b(1) = ( -1.000000 -1.000000  1.000000 )  
               b(2) = (  1.000000  1.000000  1.000000 )  
               b(3) = ( -1.000000  1.000000 -1.000000 )  


     PseudoPot. # 1 for Pt read from file:
     ./pseudo/Pt.pbe-n-rrkjus_psl.1.0.0.UPF
     MD5 check sum: 6bc887cfe28d63a5fc1f72d35a7d3ef7
     Pseudo is Ultrasoft + core correction, Zval = 10.0
     Generated using &quot;atomic&quot; code by A. Dal Corso  v.6.3
     Using radial grid of 1277 points,  6 beta functions with: 
                l(1) =   0
                l(2) =   0
                l(3) =   1
                l(4) =   1
                l(5) =   2
                l(6) =   2
     Q(r) pseudized with 0 coefficients 


     atomic species   valence    mass     pseudopotential
        Pt            10.00   195.07800     Pt( 1.00)

     48 Sym. Ops., with inversion, found



   Cartesian axes

     site n.     atom                  positions (alat units)
         1           Pt  tau(   1) = (   0.0000000   0.0000000   0.0000000  )

     number of k points=    29  Gaussian smearing, width (Ry)=  0.0200
                       cart. coord. in units 2pi/alat
        k(    1) = (   0.0000000   0.0000000   0.0000000), wk =   0.0039062
        k(    2) = (  -0.1250000   0.1250000  -0.1250000), wk =   0.0312500
        k(    3) = (  -0.2500000   0.2500000  -0.2500000), wk =   0.0312500
        k(    4) = (  -0.3750000   0.3750000  -0.3750000), wk =   0.0312500
        k(    5) = (   0.5000000  -0.5000000   0.5000000), wk =   0.0156250
        k(    6) = (   0.0000000   0.2500000   0.0000000), wk =   0.0234375
        k(    7) = (  -0.1250000   0.3750000  -0.1250000), wk =   0.0937500
        k(    8) = (  -0.2500000   0.5000000  -0.2500000), wk =   0.0937500
        k(    9) = (   0.6250000  -0.3750000   0.6250000), wk =   0.0937500
        k(   10) = (   0.5000000  -0.2500000   0.5000000), wk =   0.0937500
        k(   11) = (   0.3750000  -0.1250000   0.3750000), wk =   0.0937500
        k(   12) = (   0.2500000   0.0000000   0.2500000), wk =   0.0468750
        k(   13) = (   0.0000000   0.5000000   0.0000000), wk =   0.0234375
        k(   14) = (  -0.1250000   0.6250000  -0.1250000), wk =   0.0937500
        k(   15) = (   0.7500000  -0.2500000   0.7500000), wk =   0.0937500
        k(   16) = (   0.6250000  -0.1250000   0.6250000), wk =   0.0937500
        k(   17) = (   0.5000000   0.0000000   0.5000000), wk =   0.0468750
        k(   18) = (   0.0000000   0.7500000   0.0000000), wk =   0.0234375
        k(   19) = (   0.8750000  -0.1250000   0.8750000), wk =   0.0937500
        k(   20) = (   0.7500000   0.0000000   0.7500000), wk =   0.0468750
        k(   21) = (   0.0000000  -1.0000000   0.0000000), wk =   0.0117188
        k(   22) = (  -0.2500000   0.5000000   0.0000000), wk =   0.0937500
        k(   23) = (   0.6250000  -0.3750000   0.8750000), wk =   0.1875000
        k(   24) = (   0.5000000  -0.2500000   0.7500000), wk =   0.0937500
        k(   25) = (   0.7500000  -0.2500000   1.0000000), wk =   0.0937500
        k(   26) = (   0.6250000  -0.1250000   0.8750000), wk =   0.1875000
        k(   27) = (   0.5000000   0.0000000   0.7500000), wk =   0.0937500
        k(   28) = (  -0.2500000  -1.0000000   0.0000000), wk =   0.0468750
        k(   29) = (  -0.5000000  -1.0000000   0.0000000), wk =   0.0234375

     Dense  grid:    30467 G-vectors     FFT dimensions: (  45,  45,  45)

     Estimated max dynamical RAM per process >      27.70 MB

     Estimated total dynamical RAM >     493.71 MB

     Initial potential from superposition of free atoms

     starting charge       9.9998, renormalised to      10.0000


     %%%%%%%%%%%%%%%%%%%%%%%%%%%%%%%%%%%%%%%%%%%%%%%%%%%%%%%%%%%%%%%%%%%%%%%%
     %                                                                      %
     % You are using vdW-DF, which was implemented by the Thonhauser group. %
     % Please cite the following two papers that made this development      %
     % possible and the two reviews that describe the various versions:     %
     %                                                                      %
     %   T. Thonhauser et al., PRL 115, 136402 (2015).                      %
     %   T. Thonhauser et al., PRB 76, 125112 (2007).                       %
     %   K. Berland et al., Rep. Prog. Phys. 78, 066501 (2015).             %
     %   D.C. Langreth et al., J. Phys.: Condens. Matter 21, 084203 (2009). %
     %                                                                      %
     % If you are calculating stress with vdW-DF, please also cite:         %
     %                                                                      %
     %   R. Sabatini et al., J. Phys.: Condens. Matter 24, 424209 (2012).   %
     %                                                                      %
     %%%%%%%%%%%%%%%%%%%%%%%%%%%%%%%%%%%%%%%%%%%%%%%%%%%%%%%%%%%%%%%%%%%%%%%%

     %%%%%%%%%%%%%%%%%%%%%%%%%%%%%%%%%%%%%%%%%%%%%%%%%%%%%%%%%%%%%%%%%%%%%%%%
     %                                                                      %
     %  vdW-DF NEWS:                                                        %
     %                                                                      %
     %  * vdW-DF3 is now available. DOI: 10.1021/acs.jctc.0c00471           %
     %    use with input_dft = 'vdW-DF3-opt1' or 'vdW-DF3-opt2'             %
     %                                                                      %
     %  * Unscreened and range-separated vdW-DF hybrid functionals          %
     %    DOI: 10.1063/1.4986522 and 10.1088/1361-648X/ac2ad2               %
     %    use with input_dft = 'vdW-DF-cx0' (etc) and 'vdW-DF-ahcx'         %
     %                                                                      %
     %%%%%%%%%%%%%%%%%%%%%%%%%%%%%%%%%%%%%%%%%%%%%%%%%%%%%%%%%%%%%%%%%%%%%%%%


     Starting wfcs are    9 randomized atomic wfcs

     total cpu time spent up to now is       15.5 secs

     Self-consistent Calculation

     iteration #  1     ecut=   170.00 Ry     beta= 0.70
     CG style diagonalization
     ethr =  1.00E-02,  avg # of iterations =  3.8

     Threshold (ethr) on eigenvalues was too large:
     Diagonalizing with lowered threshold

     CG style diagonalization
     c_bands:  1 eigenvalues not converged
     ethr =  9.79E-05,  avg # of iterations =  6.2

     total cpu time spent up to now is       17.3 secs

     total energy              =     -66.16209740 Ry
     estimated scf accuracy    <       0.03103745 Ry

     iteration #  2     ecut=   170.00 Ry     beta= 0.70
     CG style diagonalization
     ethr =  3.10E-04,  avg # of iterations =  3.1

     total cpu time spent up to now is       18.2 secs

     total energy              =     -66.16715288 Ry
     estimated scf accuracy    <       0.00094124 Ry

     iteration #  3     ecut=   170.00 Ry     beta= 0.70
     CG style diagonalization
     ethr =  9.41E-06,  avg # of iterations =  5.5

     total cpu time spent up to now is       19.3 secs

     total energy              =     -66.16803255 Ry
     estimated scf accuracy    <       0.00019358 Ry

     iteration #  4     ecut=   170.00 Ry     beta= 0.70
     CG style diagonalization
     ethr =  1.94E-06,  avg # of iterations =  4.2

     total cpu time spent up to now is       20.4 secs

     total energy              =     -66.16804567 Ry
     estimated scf accuracy    <       0.00012381 Ry

     iteration #  5     ecut=   170.00 Ry     beta= 0.70
     CG style diagonalization
     ethr =  1.24E-06,  avg # of iterations =  3.3

     total cpu time spent up to now is       21.3 secs

     total energy              =     -66.16807976 Ry
     estimated scf accuracy    <       0.00000103 Ry

     iteration #  6     ecut=   170.00 Ry     beta= 0.70
     CG style diagonalization
     ethr =  1.03E-08,  avg # of iterations =  5.5

     total cpu time spent up to now is       22.4 secs

     total energy              =     -66.16808425 Ry
     estimated scf accuracy    <       0.00000094 Ry

     iteration #  7     ecut=   170.00 Ry     beta= 0.70
     CG style diagonalization
     ethr =  9.43E-09,  avg # of iterations =  3.0

     total cpu time spent up to now is       23.3 secs

     total energy              =     -66.16808419 Ry
     estimated scf accuracy    <       0.00000022 Ry

     iteration #  8     ecut=   170.00 Ry     beta= 0.70
     CG style diagonalization
     ethr =  2.16E-09,  avg # of iterations =  3.7

     total cpu time spent up to now is       24.3 secs

     total energy              =     -66.16808428 Ry
     estimated scf accuracy    <          2.9E-09 Ry

     iteration #  9     ecut=   170.00 Ry     beta= 0.70
     CG style diagonalization
     ethr =  2.93E-11,  avg # of iterations =  5.8

     total cpu time spent up to now is       25.4 secs

     total energy              =     -66.16808429 Ry
     estimated scf accuracy    <          8.9E-09 Ry

     iteration # 10     ecut=   170.00 Ry     beta= 0.70
     CG style diagonalization
     ethr =  2.93E-11,  avg # of iterations =  3.5

     total cpu time spent up to now is       26.3 secs

     End of self-consistent calculation

          k = 0.0000 0.0000 0.0000 (  3839 PWs)   bands (ev):

     7.4417  13.6621  13.6621  13.6621  15.7541  15.7541  33.2388  38.1550
    38.1550

          k =-0.1250 0.1250-0.1250 (  3774 PWs)   bands (ev):

     8.0490  13.4315  13.8805  13.8805  15.6599  15.6599  34.0539  35.3673
    38.9969

          k =-0.2500 0.2500-0.2500 (  3807 PWs)   bands (ev):

     9.4624  13.3628  14.0261  14.0261  15.9500  15.9500  31.1192  34.7427
    40.5745

          k =-0.3750 0.3750-0.3750 (  3810 PWs)   bands (ev):

    10.1969  13.7424  13.7424  15.1033  16.8973  16.8973  26.3781  33.3063
    38.5778

          k = 0.5000-0.5000 0.5000 (  3798 PWs)   bands (ev):

    10.2229  13.5843  13.5843  17.1830  17.4169  17.4169  23.3592  32.6340
    37.2877

          k = 0.0000 0.2500 0.0000 (  3803 PWs)   bands (ev):

     8.2561  13.1609  14.0925  14.0925  15.2067  15.9686  34.4264  36.3891
    37.8306

          k =-0.1250 0.3750-0.1250 (  3799 PWs)   bands (ev):

     9.4706  12.7684  14.1532  14.4474  15.3616  16.3001  33.0096  35.5145
    37.3629

          k =-0.2500 0.5000-0.2500 (  3817 PWs)   bands (ev):

    10.5666  13.3421  13.5936  14.2951  17.0374  17.0852  28.1395  34.3348
    36.4496

          k = 0.6250-0.3750 0.6250 (  3806 PWs)   bands (ev):

    10.6880  13.2315  14.0245  14.9601  17.4523  19.4678  23.7261  33.2914
    36.2006

          k = 0.5000-0.2500 0.5000 (  3812 PWs)   bands (ev):

    10.7275  13.3485  14.0146  14.7351  16.7589  18.9861  25.0900  33.3342
    35.2950

          k = 0.3750-0.1250 0.3750 (  3801 PWs)   bands (ev):

    10.3858  13.1175  13.8306  14.3136  15.5520  17.3757  29.8238  34.2358
    36.6755

          k = 0.2500 0.0000 0.2500 (  3789 PWs)   bands (ev):

     8.9815  13.0608  14.0998  14.2427  15.1642  16.1858  33.6873  34.8473
    37.7037

          k = 0.0000 0.5000 0.0000 (  3831 PWs)   bands (ev):

    10.1597  12.1063  14.4660  15.3089  15.3089  16.5136  34.9628  34.9628
    35.5033

          k =-0.1250 0.6250-0.1250 (  3815 PWs)   bands (ev):

    10.9657  11.8583  14.1631  15.5432  17.1723  17.1959  30.1855  33.4460
    33.9568

          k = 0.7500-0.2500 0.7500 (  3822 PWs)   bands (ev):

    11.2594  12.3835  13.9780  15.2271  17.5448  20.5519  25.0994  31.7645
    33.4792

          k = 0.6250-0.1250 0.6250 (  3810 PWs)   bands (ev):

    11.6280  12.7355  13.8241  14.9709  16.8178  21.4464  24.7764  30.0244
    35.6168

          k = 0.5000 0.0000 0.5000 (  3803 PWs)   bands (ev):

    11.7464  12.8551  13.2363  14.8550  15.7022  19.3138  28.4855  30.5494
    35.9656

          k = 0.0000 0.7500 0.0000 (  3824 PWs)   bands (ev):

    10.6883  11.2079  16.5721  16.9483  16.9483  17.1031  30.6346  31.1065
    31.1065

          k = 0.8750-0.1250 0.8750 (  3828 PWs)   bands (ev):

    10.7731  11.2396  15.9425  16.7172  17.6767  20.3997  26.6010  29.3850
    30.6249

          k = 0.7500 0.0000 0.7500 (  3811 PWs)   bands (ev):

    11.2287  12.0181  14.6353  16.0810  17.2301  23.4800  24.2883  27.6306
    32.5168

          k = 0.0000-1.0000 0.0000 (  3812 PWs)   bands (ev):

    10.4228  10.8697  17.3624  17.8742  17.8742  19.4747  26.4329  29.3259
    29.3259

          k =-0.2500 0.5000 0.0000 (  3804 PWs)   bands (ev):

    10.7291  12.3764  13.6484  15.3152  15.3872  17.4260  31.3082  33.3938
    36.0384

          k = 0.6250-0.3750 0.8750 (  3812 PWs)   bands (ev):

    11.4774  12.8680  13.1770  15.0105  16.6741  19.3923  26.9412  32.1091
    34.1943

          k = 0.5000-0.2500 0.7500 (  3806 PWs)   bands (ev):

    11.4826  12.6495  14.0497  14.7426  17.2050  21.9731  23.1115  32.4609
    32.9638

          k = 0.7500-0.2500 1.0000 (  3801 PWs)   bands (ev):

    11.3113  11.6718  14.1983  16.4710  16.9378  19.5920  28.2533  30.1165
    31.9231

          k = 0.6250-0.1250 0.8750 (  3813 PWs)   bands (ev):

    11.6262  12.2075  13.7862  15.7587  17.4635  22.9199  24.7412  28.8659
    31.1006

          k = 0.5000 0.0000 0.7500 (  3812 PWs)   bands (ev):

    12.2081  12.5688  12.9719  15.4693  16.9492  21.6903  27.1323  27.4851
    32.7570

          k =-0.2500-1.0000 0.0000 (  3826 PWs)   bands (ev):

    10.9951  11.3957  15.3687  16.5391  17.8759  22.4144  25.4378  28.4649
    29.5353

          k =-0.5000-1.0000 0.0000 (  3828 PWs)   bands (ev):

    11.8159  12.9366  12.9366  15.4353  17.8777  24.8237  25.9163  25.9163
    29.5565

     the Fermi energy is    17.3483 ev

!    total energy              =     -66.16808429 Ry
     estimated scf accuracy    <          2.9E-10 Ry
     smearing contrib. (-TS)   =      -0.00504917 Ry
     internal energy E=F+TS    =     -66.16303512 Ry

     The total energy is F=E-TS. E is the sum of the following terms:
     one-electron contribution =      16.21234650 Ry
     hartree contribution      =       4.28190504 Ry
     xc contribution           =     -24.80000018 Ry
     ewald contribution        =     -61.85728648 Ry

     convergence has been achieved in  10 iterations

     Writing all to output data dir ./Ptbulk.save/
 
     init_run     :     13.94s CPU     15.04s WALL (       1 calls)
     electrons    :     10.71s CPU     11.42s WALL (       1 calls)

     Called by init_run:
     wfcinit      :      0.10s CPU      0.10s WALL (       1 calls)
     potinit      :     12.54s CPU     12.56s WALL (       1 calls)
     hinit0       :      1.25s CPU      2.33s WALL (       1 calls)

     Called by electrons:
     c_bands      :      5.10s CPU      5.12s WALL (      11 calls)
     sum_band     :      0.78s CPU      0.78s WALL (      11 calls)
     v_of_rho     :     16.92s CPU     17.14s WALL (      11 calls)
     newd         :      0.18s CPU      0.20s WALL (      11 calls)
     mix_rho      :      0.13s CPU      0.10s WALL (      11 calls)
     vdW_kernel   :     11.99s CPU     11.99s WALL (       1 calls)

     Called by c_bands:
     init_us_2    :      0.06s CPU      0.08s WALL (      46 calls)
     init_us_2:cp :      0.06s CPU      0.08s WALL (      46 calls)
     ccgdiagg     :      3.66s CPU      3.69s WALL (      22 calls)
     wfcrot       :      0.88s CPU      0.88s WALL (      20 calls)

     Called by *cgdiagg:
     h_psi        :      4.04s CPU      4.10s WALL (     742 calls)
     s_psi        :      0.17s CPU      0.16s WALL (    1464 calls)

     Called by h_psi:
     h_psi:calbec :      0.12s CPU      0.13s WALL (     742 calls)
     vloc_psi     :      3.86s CPU      3.86s WALL (     742 calls)
     add_vuspsi   :      0.06s CPU      0.09s WALL (     742 calls)
     hs_1psi      :      3.29s CPU      3.36s WALL (     722 calls)
     s_1psi       :      0.14s CPU      0.15s WALL (     722 calls)

     General routines
     calbec       :      0.21s CPU      0.22s WALL (    1486 calls)
     fft          :      1.31s CPU      1.32s WALL (     672 calls)
     ffts         :      0.03s CPU      0.02s WALL (      11 calls)
     fftw         :      3.66s CPU      3.77s WALL (    2002 calls)
 
     Parallel routines
 
     PWSCF        :     24.89s CPU     28.52s WALL

 
   This run was terminated on:  10:20:23   7Oct2022            

=------------------------------------------------------------------------------=
   JOB DONE.
=------------------------------------------------------------------------------=
