
     Program PWSCF v.7.1 starts on  7Oct2022 at 10:19:55 

     This program is part of the open-source Quantum ESPRESSO suite
     for quantum simulation of materials; please cite
         "P. Giannozzi et al., J. Phys.:Condens. Matter 21 395502 (2009);
         "P. Giannozzi et al., J. Phys.:Condens. Matter 29 465901 (2017);
         "P. Giannozzi et al., J. Chem. Phys. 152 154105 (2020);
          URL http://www.quantum-espresso.org", 
     in publications or presentations arising from this work. More details at
     http://www.quantum-espresso.org/quote

     Parallel version (MPI), running on    24 processors

     MPI processes distributed on     3 nodes
     85017 MiB available memory on the printing compute node when the environment starts
 
     Waiting for input...
     Reading input from standard input

     Current dimensions of program PWSCF are:
     Max number of different atomic species (ntypx) = 10
     Max number of k-points (npk) =  40000
     Max angular momentum in pseudopotentials (lmaxx) =  4
     file Pt.pbe-n-rrkjus_psl.1.0.0.UPF: wavefunction(s)  6S renormalized

     **************************************************************************
     Initializing libbeef V0.1.2 with the BEEF-vdW functional.
     Citation: Wellendorff et al., PRB 85, 235149 (2012).
     **************************************************************************


     IMPORTANT: XC functional enforced from input :
     Exchange-correlation= BEEF-VDW
                           (   1   4  43  14   2   0   0)
     Any further DFT definition will be discarded
     Please, verify this is what you really want

 
     K-points division:     npool     =      24
     Subspace diagonalization in iterative solution of the eigenvalue problem:
     a serial algorithm will be used

 
     G-vector sticks info
     --------------------
     sticks:   dense  smooth     PW     G-vecs:    dense   smooth      PW
     Sum        1285    1285    379                30731    30731    4909
 
     Using Slab Decomposition
 


     bravais-lattice index     =            2
     lattice parameter (alat)  =       7.4280  a.u.
     unit-cell volume          =     102.4603 (a.u.)^3
     number of atoms/cell      =            1
     number of atomic types    =            1
     number of electrons       =        10.00
     number of Kohn-Sham states=            9
     kinetic-energy cutoff     =     170.0000  Ry
     charge density cutoff     =     680.0000  Ry
     scf convergence threshold =      1.0E-09
     mixing beta               =       0.7000
     number of iterations used =            8  plain     mixing
     Exchange-correlation= BEEF-VDW
                           (   1   4  43  14   2   0   0)

     celldm(1)=   7.428000  celldm(2)=   0.000000  celldm(3)=   0.000000
     celldm(4)=   0.000000  celldm(5)=   0.000000  celldm(6)=   0.000000

     crystal axes: (cart. coord. in units of alat)
               a(1) = (  -0.500000   0.000000   0.500000 )  
               a(2) = (   0.000000   0.500000   0.500000 )  
               a(3) = (  -0.500000   0.500000   0.000000 )  

     reciprocal axes: (cart. coord. in units 2 pi/alat)
               b(1) = ( -1.000000 -1.000000  1.000000 )  
               b(2) = (  1.000000  1.000000  1.000000 )  
               b(3) = ( -1.000000  1.000000 -1.000000 )  


     PseudoPot. # 1 for Pt read from file:
     ./pseudo/Pt.pbe-n-rrkjus_psl.1.0.0.UPF
     MD5 check sum: 6bc887cfe28d63a5fc1f72d35a7d3ef7
     Pseudo is Ultrasoft + core correction, Zval = 10.0
     Generated using &quot;atomic&quot; code by A. Dal Corso  v.6.3
     Using radial grid of 1277 points,  6 beta functions with: 
                l(1) =   0
                l(2) =   0
                l(3) =   1
                l(4) =   1
                l(5) =   2
                l(6) =   2
     Q(r) pseudized with 0 coefficients 


     atomic species   valence    mass     pseudopotential
        Pt            10.00   195.07800     Pt( 1.00)

     48 Sym. Ops., with inversion, found



   Cartesian axes

     site n.     atom                  positions (alat units)
         1           Pt  tau(   1) = (   0.0000000   0.0000000   0.0000000  )

     number of k points=    29  Gaussian smearing, width (Ry)=  0.0200
                       cart. coord. in units 2pi/alat
        k(    1) = (   0.0000000   0.0000000   0.0000000), wk =   0.0039062
        k(    2) = (  -0.1250000   0.1250000  -0.1250000), wk =   0.0312500
        k(    3) = (  -0.2500000   0.2500000  -0.2500000), wk =   0.0312500
        k(    4) = (  -0.3750000   0.3750000  -0.3750000), wk =   0.0312500
        k(    5) = (   0.5000000  -0.5000000   0.5000000), wk =   0.0156250
        k(    6) = (   0.0000000   0.2500000   0.0000000), wk =   0.0234375
        k(    7) = (  -0.1250000   0.3750000  -0.1250000), wk =   0.0937500
        k(    8) = (  -0.2500000   0.5000000  -0.2500000), wk =   0.0937500
        k(    9) = (   0.6250000  -0.3750000   0.6250000), wk =   0.0937500
        k(   10) = (   0.5000000  -0.2500000   0.5000000), wk =   0.0937500
        k(   11) = (   0.3750000  -0.1250000   0.3750000), wk =   0.0937500
        k(   12) = (   0.2500000   0.0000000   0.2500000), wk =   0.0468750
        k(   13) = (   0.0000000   0.5000000   0.0000000), wk =   0.0234375
        k(   14) = (  -0.1250000   0.6250000  -0.1250000), wk =   0.0937500
        k(   15) = (   0.7500000  -0.2500000   0.7500000), wk =   0.0937500
        k(   16) = (   0.6250000  -0.1250000   0.6250000), wk =   0.0937500
        k(   17) = (   0.5000000   0.0000000   0.5000000), wk =   0.0468750
        k(   18) = (   0.0000000   0.7500000   0.0000000), wk =   0.0234375
        k(   19) = (   0.8750000  -0.1250000   0.8750000), wk =   0.0937500
        k(   20) = (   0.7500000   0.0000000   0.7500000), wk =   0.0468750
        k(   21) = (   0.0000000  -1.0000000   0.0000000), wk =   0.0117188
        k(   22) = (  -0.2500000   0.5000000   0.0000000), wk =   0.0937500
        k(   23) = (   0.6250000  -0.3750000   0.8750000), wk =   0.1875000
        k(   24) = (   0.5000000  -0.2500000   0.7500000), wk =   0.0937500
        k(   25) = (   0.7500000  -0.2500000   1.0000000), wk =   0.0937500
        k(   26) = (   0.6250000  -0.1250000   0.8750000), wk =   0.1875000
        k(   27) = (   0.5000000   0.0000000   0.7500000), wk =   0.0937500
        k(   28) = (  -0.2500000  -1.0000000   0.0000000), wk =   0.0468750
        k(   29) = (  -0.5000000  -1.0000000   0.0000000), wk =   0.0234375

     Dense  grid:    30731 G-vectors     FFT dimensions: (  45,  45,  45)

     Estimated max dynamical RAM per process >      27.86 MB

     Estimated total dynamical RAM >     496.12 MB

     Initial potential from superposition of free atoms

     starting charge       9.9998, renormalised to      10.0000


     %%%%%%%%%%%%%%%%%%%%%%%%%%%%%%%%%%%%%%%%%%%%%%%%%%%%%%%%%%%%%%%%%%%%%%%%
     %                                                                      %
     % You are using vdW-DF, which was implemented by the Thonhauser group. %
     % Please cite the following two papers that made this development      %
     % possible and the two reviews that describe the various versions:     %
     %                                                                      %
     %   T. Thonhauser et al., PRL 115, 136402 (2015).                      %
     %   T. Thonhauser et al., PRB 76, 125112 (2007).                       %
     %   K. Berland et al., Rep. Prog. Phys. 78, 066501 (2015).             %
     %   D.C. Langreth et al., J. Phys.: Condens. Matter 21, 084203 (2009). %
     %                                                                      %
     % If you are calculating stress with vdW-DF, please also cite:         %
     %                                                                      %
     %   R. Sabatini et al., J. Phys.: Condens. Matter 24, 424209 (2012).   %
     %                                                                      %
     %%%%%%%%%%%%%%%%%%%%%%%%%%%%%%%%%%%%%%%%%%%%%%%%%%%%%%%%%%%%%%%%%%%%%%%%

     %%%%%%%%%%%%%%%%%%%%%%%%%%%%%%%%%%%%%%%%%%%%%%%%%%%%%%%%%%%%%%%%%%%%%%%%
     %                                                                      %
     %  vdW-DF NEWS:                                                        %
     %                                                                      %
     %  * vdW-DF3 is now available. DOI: 10.1021/acs.jctc.0c00471           %
     %    use with input_dft = 'vdW-DF3-opt1' or 'vdW-DF3-opt2'             %
     %                                                                      %
     %  * Unscreened and range-separated vdW-DF hybrid functionals          %
     %    DOI: 10.1063/1.4986522 and 10.1088/1361-648X/ac2ad2               %
     %    use with input_dft = 'vdW-DF-cx0' (etc) and 'vdW-DF-ahcx'         %
     %                                                                      %
     %%%%%%%%%%%%%%%%%%%%%%%%%%%%%%%%%%%%%%%%%%%%%%%%%%%%%%%%%%%%%%%%%%%%%%%%


     Starting wfcs are    9 randomized atomic wfcs

     total cpu time spent up to now is       14.7 secs

     Self-consistent Calculation

     iteration #  1     ecut=   170.00 Ry     beta= 0.70
     CG style diagonalization
     ethr =  1.00E-02,  avg # of iterations =  3.7

     Threshold (ethr) on eigenvalues was too large:
     Diagonalizing with lowered threshold

     CG style diagonalization
     ethr =  9.96E-05,  avg # of iterations =  6.0

     total cpu time spent up to now is       16.5 secs

     total energy              =     -66.16256561 Ry
     estimated scf accuracy    <       0.03133301 Ry

     iteration #  2     ecut=   170.00 Ry     beta= 0.70
     CG style diagonalization
     ethr =  3.13E-04,  avg # of iterations =  3.1

     total cpu time spent up to now is       17.3 secs

     total energy              =     -66.16782118 Ry
     estimated scf accuracy    <       0.00101080 Ry

     iteration #  3     ecut=   170.00 Ry     beta= 0.70
     CG style diagonalization
     ethr =  1.01E-05,  avg # of iterations =  5.5

     total cpu time spent up to now is       18.5 secs

     total energy              =     -66.16873683 Ry
     estimated scf accuracy    <       0.00019132 Ry

     iteration #  4     ecut=   170.00 Ry     beta= 0.70
     CG style diagonalization
     ethr =  1.91E-06,  avg # of iterations =  4.2

     total cpu time spent up to now is       19.5 secs

     total energy              =     -66.16875211 Ry
     estimated scf accuracy    <       0.00011344 Ry

     iteration #  5     ecut=   170.00 Ry     beta= 0.70
     CG style diagonalization
     ethr =  1.13E-06,  avg # of iterations =  3.4

     total cpu time spent up to now is       20.4 secs

     total energy              =     -66.16878805 Ry
     estimated scf accuracy    <       0.00000207 Ry

     iteration #  6     ecut=   170.00 Ry     beta= 0.70
     CG style diagonalization
     ethr =  2.07E-08,  avg # of iterations =  4.9

     total cpu time spent up to now is       21.5 secs

     total energy              =     -66.16879273 Ry
     estimated scf accuracy    <       0.00000106 Ry

     iteration #  7     ecut=   170.00 Ry     beta= 0.70
     CG style diagonalization
     ethr =  1.06E-08,  avg # of iterations =  3.1

     total cpu time spent up to now is       22.3 secs

     total energy              =     -66.16879362 Ry
     estimated scf accuracy    <       0.00000124 Ry

     iteration #  8     ecut=   170.00 Ry     beta= 0.70
     CG style diagonalization
     ethr =  1.06E-08,  avg # of iterations =  3.1

     total cpu time spent up to now is       23.2 secs

     total energy              =     -66.16879340 Ry
     estimated scf accuracy    <       0.00000347 Ry

     iteration #  9     ecut=   170.00 Ry     beta= 0.70
     CG style diagonalization
     ethr =  1.06E-08,  avg # of iterations =  3.0

     total cpu time spent up to now is       24.1 secs

     total energy              =     -66.16879329 Ry
     estimated scf accuracy    <       0.00000296 Ry

     iteration # 10     ecut=   170.00 Ry     beta= 0.70
     CG style diagonalization
     ethr =  1.06E-08,  avg # of iterations =  3.0

     total cpu time spent up to now is       24.9 secs

     total energy              =     -66.16879331 Ry
     estimated scf accuracy    <       0.00000259 Ry

     iteration # 11     ecut=   170.00 Ry     beta= 0.70
     CG style diagonalization
     ethr =  1.06E-08,  avg # of iterations =  3.0

     total cpu time spent up to now is       25.8 secs

     total energy              =     -66.16879334 Ry
     estimated scf accuracy    <       0.00000262 Ry

     iteration # 12     ecut=   170.00 Ry     beta= 0.70
     CG style diagonalization
     ethr =  1.06E-08,  avg # of iterations =  3.0

     total cpu time spent up to now is       26.6 secs

     total energy              =     -66.16879325 Ry
     estimated scf accuracy    <       0.00000268 Ry

     iteration # 13     ecut=   170.00 Ry     beta= 0.70
     CG style diagonalization
     ethr =  1.06E-08,  avg # of iterations =  3.0

     total cpu time spent up to now is       27.5 secs

     total energy              =     -66.16879322 Ry
     estimated scf accuracy    <       0.00000249 Ry

     iteration # 14     ecut=   170.00 Ry     beta= 0.70
     CG style diagonalization
     ethr =  1.06E-08,  avg # of iterations =  3.0

     total cpu time spent up to now is       28.3 secs

     total energy              =     -66.16879312 Ry
     estimated scf accuracy    <       0.00000240 Ry

     iteration # 15     ecut=   170.00 Ry     beta= 0.70
     CG style diagonalization
     ethr =  1.06E-08,  avg # of iterations =  3.0

     total cpu time spent up to now is       29.2 secs

     total energy              =     -66.16879187 Ry
     estimated scf accuracy    <       0.00000217 Ry

     iteration # 16     ecut=   170.00 Ry     beta= 0.70
     CG style diagonalization
     ethr =  1.06E-08,  avg # of iterations =  3.5

     total cpu time spent up to now is       30.1 secs

     total energy              =     -66.16879232 Ry
     estimated scf accuracy    <          8.3E-09 Ry

     iteration # 17     ecut=   170.00 Ry     beta= 0.70
     CG style diagonalization
     ethr =  8.28E-11,  avg # of iterations =  6.3

     total cpu time spent up to now is       31.2 secs

     total energy              =     -66.16879238 Ry
     estimated scf accuracy    <       0.00000009 Ry

     iteration # 18     ecut=   170.00 Ry     beta= 0.70
     CG style diagonalization
     ethr =  8.28E-11,  avg # of iterations =  3.0

     total cpu time spent up to now is       32.1 secs

     total energy              =     -66.16879237 Ry
     estimated scf accuracy    <       0.00000006 Ry

     iteration # 19     ecut=   170.00 Ry     beta= 0.70
     CG style diagonalization
     ethr =  8.28E-11,  avg # of iterations =  3.4

     total cpu time spent up to now is       32.9 secs

     total energy              =     -66.16879240 Ry
     estimated scf accuracy    <       0.00000003 Ry

     iteration # 20     ecut=   170.00 Ry     beta= 0.70
     CG style diagonalization
     ethr =  8.28E-11,  avg # of iterations =  3.6

     total cpu time spent up to now is       33.8 secs

     total energy              =     -66.16879239 Ry
     estimated scf accuracy    <       0.00000010 Ry

     iteration # 21     ecut=   170.00 Ry     beta= 0.70
     CG style diagonalization
     ethr =  8.28E-11,  avg # of iterations =  3.0

     total cpu time spent up to now is       34.7 secs

     total energy              =     -66.16879240 Ry
     estimated scf accuracy    <       0.00000007 Ry

     iteration # 22     ecut=   170.00 Ry     beta= 0.70
     CG style diagonalization
     ethr =  8.28E-11,  avg # of iterations =  3.0

     total cpu time spent up to now is       35.5 secs

     total energy              =     -66.16879239 Ry
     estimated scf accuracy    <       0.00000008 Ry

     iteration # 23     ecut=   170.00 Ry     beta= 0.70
     CG style diagonalization
     ethr =  8.28E-11,  avg # of iterations =  3.0

     total cpu time spent up to now is       36.3 secs

     total energy              =     -66.16879238 Ry
     estimated scf accuracy    <       0.00000006 Ry

     iteration # 24     ecut=   170.00 Ry     beta= 0.70
     CG style diagonalization
     ethr =  8.28E-11,  avg # of iterations =  3.0

     total cpu time spent up to now is       37.2 secs

     total energy              =     -66.16879237 Ry
     estimated scf accuracy    <       0.00000004 Ry

     iteration # 25     ecut=   170.00 Ry     beta= 0.70
     CG style diagonalization
     ethr =  8.28E-11,  avg # of iterations =  3.4

     total cpu time spent up to now is       38.1 secs

     total energy              =     -66.16879237 Ry
     estimated scf accuracy    <          8.1E-09 Ry

     iteration # 26     ecut=   170.00 Ry     beta= 0.70
     CG style diagonalization
     ethr =  8.07E-11,  avg # of iterations =  3.0

     total cpu time spent up to now is       38.9 secs

     End of self-consistent calculation

          k = 0.0000 0.0000 0.0000 (  3839 PWs)   bands (ev):

     7.3515  13.5391  13.5391  13.5391  15.6082  15.6082  33.0834  37.9600
    37.9600

          k =-0.1250 0.1250-0.1250 (  3807 PWs)   bands (ev):

     7.9552  13.3114  13.7554  13.7554  15.5155  15.5155  33.8855  35.1772
    38.7907

          k =-0.2500 0.2500-0.2500 (  3813 PWs)   bands (ev):

     9.3625  13.2434  13.8997  13.8997  15.8031  15.8031  30.9115  34.5631
    40.3269

          k =-0.3750 0.3750-0.3750 (  3837 PWs)   bands (ev):

    10.0998  13.6192  13.6192  14.9712  16.7397  16.7397  26.1650  33.1429
    38.3431

          k = 0.5000-0.5000 0.5000 (  3828 PWs)   bands (ev):

    10.1279  13.4627  13.4627  17.0464  17.2529  17.2529  23.1463  32.4782
    37.0672

          k = 0.0000 0.2500 0.0000 (  3819 PWs)   bands (ev):

     8.1609  13.0436  13.9653  13.9653  15.0678  15.8205  34.2564  36.1993
    37.6179

          k =-0.1250 0.3750-0.1250 (  3822 PWs)   bands (ev):

     9.3693  12.6553  14.0260  14.3166  15.2215  16.1488  32.8012  35.3262
    37.1295

          k =-0.2500 0.5000-0.2500 (  3832 PWs)   bands (ev):

    10.4650  13.2231  13.4720  14.1662  16.8816  16.9251  27.9259  34.1555
    36.2161

          k = 0.6250-0.3750 0.6250 (  3832 PWs)   bands (ev):

    10.5895  13.1144  13.8986  14.8275  17.2879  19.2998  23.5182  33.1179
    35.9762

          k = 0.5000-0.2500 0.5000 (  3831 PWs)   bands (ev):

    10.6278  13.2300  13.8888  14.6047  16.6032  18.8141  24.8804  33.1497
    35.0821

          k = 0.3750-0.1250 0.3750 (  3825 PWs)   bands (ev):

    10.2821  13.0002  13.7072  14.1846  15.4099  17.2136  29.6100  34.0281
    36.4622

          k = 0.2500 0.0000 0.2500 (  3829 PWs)   bands (ev):

     8.8823  12.9447  13.9728  14.1141  15.0259  16.0359  33.4903  34.6512
    37.4956

          k = 0.0000 0.5000 0.0000 (  3831 PWs)   bands (ev):

    10.0565  12.0000  14.3356  15.1694  15.1694  16.3596  34.7364  34.7364
    35.3062

          k =-0.1250 0.6250-0.1250 (  3841 PWs)   bands (ev):

    10.8635  11.7539  14.0353  15.4011  17.0111  17.0389  29.9702  33.2268
    33.7345

          k = 0.7500-0.2500 0.7500 (  3844 PWs)   bands (ev):

    11.1587  12.2746  13.8521  15.0887  17.3793  20.3710  24.9017  31.5411
    33.2613

          k = 0.6250-0.1250 0.6250 (  3842 PWs)   bands (ev):

    11.5234  12.6235  13.7005  14.8354  16.6614  21.2621  24.5711  29.8048
    35.3837

          k = 0.5000 0.0000 0.5000 (  3845 PWs)   bands (ev):

    11.6361  12.7407  13.1197  14.7208  15.5585  19.1350  28.2754  30.3211
    35.7745

          k = 0.0000 0.7500 0.0000 (  3848 PWs)   bands (ev):

    10.5925  11.1100  16.4276  16.7907  16.7907  16.9424  30.3952  30.9029
    30.9029

          k = 0.8750-0.1250 0.8750 (  3848 PWs)   bands (ev):

    10.6786  11.1411  15.7990  16.5619  17.5097  20.2247  26.3935  29.1693
    30.4251

          k = 0.7500 0.0000 0.7500 (  3851 PWs)   bands (ev):

    11.1305  11.9119  14.5039  15.9333  17.0688  23.2896  24.0930  27.4111
    32.3019

          k = 0.0000-1.0000 0.0000 (  3860 PWs)   bands (ev):

    10.3316  10.7749  17.1987  17.7050  17.7050  19.3234  26.1995  29.1373
    29.1373

          k =-0.2500 0.5000 0.0000 (  3833 PWs)   bands (ev):

    10.6224  12.2672  13.5269  15.1756  15.2471  17.2633  31.0948  33.1620
    35.8296

          k = 0.6250-0.3750 0.8750 (  3837 PWs)   bands (ev):

    11.3719  12.7549  13.0587  14.8746  16.5198  19.2150  26.7327  31.8859
    33.9865

          k = 0.5000-0.2500 0.7500 (  3824 PWs)   bands (ev):

    11.3783  12.5389  13.9244  14.6094  17.0440  21.7930  22.9071  32.2326
    32.7574

          k = 0.7500-0.2500 1.0000 (  3835 PWs)   bands (ev):

    11.2107  11.5691  14.0704  16.3195  16.7803  19.4152  28.0442  29.9060
    31.7000

          k = 0.6250-0.1250 0.8750 (  3838 PWs)   bands (ev):

    11.5243  12.0995  13.6625  15.6151  17.2995  22.7243  24.5477  28.6477
    30.8848

          k = 0.5000 0.0000 0.7500 (  3837 PWs)   bands (ev):

    12.1013  12.4558  12.8562  15.3289  16.7914  21.5023  26.9214  27.2747
    32.5346

          k =-0.2500-1.0000 0.0000 (  3844 PWs)   bands (ev):

    10.8992  11.2954  15.2305  16.3862  17.7066  22.2335  25.2223  28.2697
    29.3246

          k =-0.5000-1.0000 0.0000 (  3852 PWs)   bands (ev):

    11.7132  12.8213  12.8213  15.2954  17.7083  24.6131  25.7195  25.7195
    29.3387

     the Fermi energy is    17.1865 ev

!    total energy              =     -66.16879237 Ry
     estimated scf accuracy    <          5.1E-10 Ry
     smearing contrib. (-TS)   =      -0.00511058 Ry
     internal energy E=F+TS    =     -66.16368179 Ry

     The total energy is F=E-TS. E is the sum of the following terms:
     one-electron contribution =      16.03273222 Ry
     hartree contribution      =       4.32089940 Ry
     xc contribution           =     -24.79326825 Ry
     ewald contribution        =     -61.72404516 Ry

     convergence has been achieved in  26 iterations

     Writing all to output data dir ./Ptbulk.save/
 
     init_run     :     14.21s CPU     14.28s WALL (       1 calls)
     electrons    :     23.57s CPU     24.23s WALL (       1 calls)

     Called by init_run:
     wfcinit      :      0.09s CPU      0.09s WALL (       1 calls)
     potinit      :     12.93s CPU     12.96s WALL (       1 calls)
     hinit0       :      1.15s CPU      1.17s WALL (       1 calls)

     Called by electrons:
     c_bands      :      9.48s CPU      9.52s WALL (      27 calls)
     sum_band     :      1.85s CPU      1.88s WALL (      27 calls)
     v_of_rho     :     23.07s CPU     23.62s WALL (      27 calls)
     newd         :      0.44s CPU      0.49s WALL (      27 calls)
     mix_rho      :      0.32s CPU      0.35s WALL (      27 calls)
     vdW_kernel   :     11.33s CPU     11.33s WALL (       1 calls)

     Called by c_bands:
     init_us_2    :      0.15s CPU      0.18s WALL (     110 calls)
     init_us_2:cp :      0.15s CPU      0.18s WALL (     110 calls)
     ccgdiagg     :      6.57s CPU      6.57s WALL (      54 calls)
     wfcrot       :      2.21s CPU      2.24s WALL (      52 calls)

     Called by *cgdiagg:
     h_psi        :      7.83s CPU      7.87s WALL (    1330 calls)
     s_psi        :      0.36s CPU      0.30s WALL (    2608 calls)

     Called by h_psi:
     h_psi:calbec :      0.35s CPU      0.27s WALL (    1330 calls)
     vloc_psi     :      7.15s CPU      7.35s WALL (    1330 calls)
     add_vuspsi   :      0.20s CPU      0.18s WALL (    1330 calls)
     hs_1psi      :      5.93s CPU      5.96s WALL (    1278 calls)
     s_1psi       :      0.32s CPU      0.30s WALL (    1278 calls)

     General routines
     calbec       :      0.50s CPU      0.44s WALL (    2662 calls)
     fft          :      3.15s CPU      3.13s WALL (    1648 calls)
     ffts         :      0.02s CPU      0.05s WALL (      27 calls)
     fftw         :      7.03s CPU      7.20s WALL (    3978 calls)
 
     Parallel routines
 
     PWSCF        :     37.98s CPU     39.82s WALL

 
   This run was terminated on:  10:20:34   7Oct2022            

=------------------------------------------------------------------------------=
   JOB DONE.
=------------------------------------------------------------------------------=
