
     Program PWSCF v.7.1 starts on  7Oct2022 at 10:19:54 

     This program is part of the open-source Quantum ESPRESSO suite
     for quantum simulation of materials; please cite
         "P. Giannozzi et al., J. Phys.:Condens. Matter 21 395502 (2009);
         "P. Giannozzi et al., J. Phys.:Condens. Matter 29 465901 (2017);
         "P. Giannozzi et al., J. Chem. Phys. 152 154105 (2020);
          URL http://www.quantum-espresso.org", 
     in publications or presentations arising from this work. More details at
     http://www.quantum-espresso.org/quote

     Parallel version (MPI), running on    24 processors

     MPI processes distributed on     3 nodes
     87931 MiB available memory on the printing compute node when the environment starts
 
     Waiting for input...
     Reading input from standard input

     Current dimensions of program PWSCF are:
     Max number of different atomic species (ntypx) = 10
     Max number of k-points (npk) =  40000
     Max angular momentum in pseudopotentials (lmaxx) =  4
     file Pt.pbe-n-rrkjus_psl.1.0.0.UPF: wavefunction(s)  6S renormalized

     **************************************************************************
     Initializing libbeef V0.1.2 with the BEEF-vdW functional.
     Citation: Wellendorff et al., PRB 85, 235149 (2012).
     **************************************************************************


     IMPORTANT: XC functional enforced from input :
     Exchange-correlation= BEEF-VDW
                           (   1   4  43  14   2   0   0)
     Any further DFT definition will be discarded
     Please, verify this is what you really want

 
     K-points division:     npool     =      24
     Subspace diagonalization in iterative solution of the eigenvalue problem:
     a serial algorithm will be used

 
     G-vector sticks info
     --------------------
     sticks:   dense  smooth     PW     G-vecs:    dense   smooth      PW
     Sum        1285    1285    379                30731    30731    4909
 
     Using Slab Decomposition
 


     bravais-lattice index     =            2
     lattice parameter (alat)  =       7.4320  a.u.
     unit-cell volume          =     102.6259 (a.u.)^3
     number of atoms/cell      =            1
     number of atomic types    =            1
     number of electrons       =        10.00
     number of Kohn-Sham states=            9
     kinetic-energy cutoff     =     170.0000  Ry
     charge density cutoff     =     680.0000  Ry
     scf convergence threshold =      1.0E-09
     mixing beta               =       0.7000
     number of iterations used =            8  plain     mixing
     Exchange-correlation= BEEF-VDW
                           (   1   4  43  14   2   0   0)

     celldm(1)=   7.432000  celldm(2)=   0.000000  celldm(3)=   0.000000
     celldm(4)=   0.000000  celldm(5)=   0.000000  celldm(6)=   0.000000

     crystal axes: (cart. coord. in units of alat)
               a(1) = (  -0.500000   0.000000   0.500000 )  
               a(2) = (   0.000000   0.500000   0.500000 )  
               a(3) = (  -0.500000   0.500000   0.000000 )  

     reciprocal axes: (cart. coord. in units 2 pi/alat)
               b(1) = ( -1.000000 -1.000000  1.000000 )  
               b(2) = (  1.000000  1.000000  1.000000 )  
               b(3) = ( -1.000000  1.000000 -1.000000 )  


     PseudoPot. # 1 for Pt read from file:
     ./pseudo/Pt.pbe-n-rrkjus_psl.1.0.0.UPF
     MD5 check sum: 6bc887cfe28d63a5fc1f72d35a7d3ef7
     Pseudo is Ultrasoft + core correction, Zval = 10.0
     Generated using &quot;atomic&quot; code by A. Dal Corso  v.6.3
     Using radial grid of 1277 points,  6 beta functions with: 
                l(1) =   0
                l(2) =   0
                l(3) =   1
                l(4) =   1
                l(5) =   2
                l(6) =   2
     Q(r) pseudized with 0 coefficients 


     atomic species   valence    mass     pseudopotential
        Pt            10.00   195.07800     Pt( 1.00)

     48 Sym. Ops., with inversion, found



   Cartesian axes

     site n.     atom                  positions (alat units)
         1           Pt  tau(   1) = (   0.0000000   0.0000000   0.0000000  )

     number of k points=    29  Gaussian smearing, width (Ry)=  0.0200
                       cart. coord. in units 2pi/alat
        k(    1) = (   0.0000000   0.0000000   0.0000000), wk =   0.0039062
        k(    2) = (  -0.1250000   0.1250000  -0.1250000), wk =   0.0312500
        k(    3) = (  -0.2500000   0.2500000  -0.2500000), wk =   0.0312500
        k(    4) = (  -0.3750000   0.3750000  -0.3750000), wk =   0.0312500
        k(    5) = (   0.5000000  -0.5000000   0.5000000), wk =   0.0156250
        k(    6) = (   0.0000000   0.2500000   0.0000000), wk =   0.0234375
        k(    7) = (  -0.1250000   0.3750000  -0.1250000), wk =   0.0937500
        k(    8) = (  -0.2500000   0.5000000  -0.2500000), wk =   0.0937500
        k(    9) = (   0.6250000  -0.3750000   0.6250000), wk =   0.0937500
        k(   10) = (   0.5000000  -0.2500000   0.5000000), wk =   0.0937500
        k(   11) = (   0.3750000  -0.1250000   0.3750000), wk =   0.0937500
        k(   12) = (   0.2500000   0.0000000   0.2500000), wk =   0.0468750
        k(   13) = (   0.0000000   0.5000000   0.0000000), wk =   0.0234375
        k(   14) = (  -0.1250000   0.6250000  -0.1250000), wk =   0.0937500
        k(   15) = (   0.7500000  -0.2500000   0.7500000), wk =   0.0937500
        k(   16) = (   0.6250000  -0.1250000   0.6250000), wk =   0.0937500
        k(   17) = (   0.5000000   0.0000000   0.5000000), wk =   0.0468750
        k(   18) = (   0.0000000   0.7500000   0.0000000), wk =   0.0234375
        k(   19) = (   0.8750000  -0.1250000   0.8750000), wk =   0.0937500
        k(   20) = (   0.7500000   0.0000000   0.7500000), wk =   0.0468750
        k(   21) = (   0.0000000  -1.0000000   0.0000000), wk =   0.0117188
        k(   22) = (  -0.2500000   0.5000000   0.0000000), wk =   0.0937500
        k(   23) = (   0.6250000  -0.3750000   0.8750000), wk =   0.1875000
        k(   24) = (   0.5000000  -0.2500000   0.7500000), wk =   0.0937500
        k(   25) = (   0.7500000  -0.2500000   1.0000000), wk =   0.0937500
        k(   26) = (   0.6250000  -0.1250000   0.8750000), wk =   0.1875000
        k(   27) = (   0.5000000   0.0000000   0.7500000), wk =   0.0937500
        k(   28) = (  -0.2500000  -1.0000000   0.0000000), wk =   0.0468750
        k(   29) = (  -0.5000000  -1.0000000   0.0000000), wk =   0.0234375

     Dense  grid:    30731 G-vectors     FFT dimensions: (  45,  45,  45)

     Estimated max dynamical RAM per process >      27.87 MB

     Estimated total dynamical RAM >     496.22 MB

     Initial potential from superposition of free atoms

     starting charge       9.9998, renormalised to      10.0000


     %%%%%%%%%%%%%%%%%%%%%%%%%%%%%%%%%%%%%%%%%%%%%%%%%%%%%%%%%%%%%%%%%%%%%%%%
     %                                                                      %
     % You are using vdW-DF, which was implemented by the Thonhauser group. %
     % Please cite the following two papers that made this development      %
     % possible and the two reviews that describe the various versions:     %
     %                                                                      %
     %   T. Thonhauser et al., PRL 115, 136402 (2015).                      %
     %   T. Thonhauser et al., PRB 76, 125112 (2007).                       %
     %   K. Berland et al., Rep. Prog. Phys. 78, 066501 (2015).             %
     %   D.C. Langreth et al., J. Phys.: Condens. Matter 21, 084203 (2009). %
     %                                                                      %
     % If you are calculating stress with vdW-DF, please also cite:         %
     %                                                                      %
     %   R. Sabatini et al., J. Phys.: Condens. Matter 24, 424209 (2012).   %
     %                                                                      %
     %%%%%%%%%%%%%%%%%%%%%%%%%%%%%%%%%%%%%%%%%%%%%%%%%%%%%%%%%%%%%%%%%%%%%%%%

     %%%%%%%%%%%%%%%%%%%%%%%%%%%%%%%%%%%%%%%%%%%%%%%%%%%%%%%%%%%%%%%%%%%%%%%%
     %                                                                      %
     %  vdW-DF NEWS:                                                        %
     %                                                                      %
     %  * vdW-DF3 is now available. DOI: 10.1021/acs.jctc.0c00471           %
     %    use with input_dft = 'vdW-DF3-opt1' or 'vdW-DF3-opt2'             %
     %                                                                      %
     %  * Unscreened and range-separated vdW-DF hybrid functionals          %
     %    DOI: 10.1063/1.4986522 and 10.1088/1361-648X/ac2ad2               %
     %    use with input_dft = 'vdW-DF-cx0' (etc) and 'vdW-DF-ahcx'         %
     %                                                                      %
     %%%%%%%%%%%%%%%%%%%%%%%%%%%%%%%%%%%%%%%%%%%%%%%%%%%%%%%%%%%%%%%%%%%%%%%%


     Starting wfcs are    9 randomized atomic wfcs

     total cpu time spent up to now is       14.7 secs

     Self-consistent Calculation

     iteration #  1     ecut=   170.00 Ry     beta= 0.70
     CG style diagonalization
     ethr =  1.00E-02,  avg # of iterations =  3.7

     Threshold (ethr) on eigenvalues was too large:
     Diagonalizing with lowered threshold

     CG style diagonalization
     ethr =  1.00E-04,  avg # of iterations =  6.0

     total cpu time spent up to now is       16.5 secs

     total energy              =     -66.16297442 Ry
     estimated scf accuracy    <       0.03087887 Ry

     iteration #  2     ecut=   170.00 Ry     beta= 0.70
     CG style diagonalization
     ethr =  3.09E-04,  avg # of iterations =  3.1

     total cpu time spent up to now is       17.3 secs

     total energy              =     -66.16798700 Ry
     estimated scf accuracy    <       0.00088188 Ry

     iteration #  3     ecut=   170.00 Ry     beta= 0.70
     CG style diagonalization
     ethr =  8.82E-06,  avg # of iterations =  5.8

     total cpu time spent up to now is       18.5 secs

     total energy              =     -66.16890047 Ry
     estimated scf accuracy    <       0.00021317 Ry

     iteration #  4     ecut=   170.00 Ry     beta= 0.70
     CG style diagonalization
     ethr =  2.13E-06,  avg # of iterations =  4.2

     total cpu time spent up to now is       19.4 secs

     total energy              =     -66.16889822 Ry
     estimated scf accuracy    <       0.00020343 Ry

     iteration #  5     ecut=   170.00 Ry     beta= 0.70
     CG style diagonalization
     ethr =  2.03E-06,  avg # of iterations =  3.3

     total cpu time spent up to now is       20.3 secs

     total energy              =     -66.16895006 Ry
     estimated scf accuracy    <       0.00000070 Ry

     iteration #  6     ecut=   170.00 Ry     beta= 0.70
     CG style diagonalization
     ethr =  7.00E-09,  avg # of iterations =  6.0

     total cpu time spent up to now is       21.4 secs

     total energy              =     -66.16895689 Ry
     estimated scf accuracy    <       0.00000162 Ry

     iteration #  7     ecut=   170.00 Ry     beta= 0.70
     CG style diagonalization
     ethr =  7.00E-09,  avg # of iterations =  3.0

     total cpu time spent up to now is       22.3 secs

     total energy              =     -66.16895788 Ry
     estimated scf accuracy    <       0.00000173 Ry

     iteration #  8     ecut=   170.00 Ry     beta= 0.70
     CG style diagonalization
     ethr =  7.00E-09,  avg # of iterations =  3.1

     total cpu time spent up to now is       23.1 secs

     total energy              =     -66.16895617 Ry
     estimated scf accuracy    <       0.00000430 Ry

     iteration #  9     ecut=   170.00 Ry     beta= 0.70
     CG style diagonalization
     ethr =  7.00E-09,  avg # of iterations =  5.9

     total cpu time spent up to now is       24.3 secs

     total energy              =     -66.16895266 Ry
     estimated scf accuracy    <       0.00002866 Ry

     iteration # 10     ecut=   170.00 Ry     beta= 0.70
     CG style diagonalization
     ethr =  7.00E-09,  avg # of iterations =  5.3

     total cpu time spent up to now is       25.4 secs

     total energy              =     -66.16895778 Ry
     estimated scf accuracy    <       0.00000090 Ry

     iteration # 11     ecut=   170.00 Ry     beta= 0.70
     CG style diagonalization
     ethr =  7.00E-09,  avg # of iterations =  3.6

     total cpu time spent up to now is       26.3 secs

     total energy              =     -66.16895681 Ry
     estimated scf accuracy    <       0.00000508 Ry

     iteration # 12     ecut=   170.00 Ry     beta= 0.70
     CG style diagonalization
     ethr =  7.00E-09,  avg # of iterations =  3.2

     total cpu time spent up to now is       27.1 secs

     total energy              =     -66.16895701 Ry
     estimated scf accuracy    <       0.00000216 Ry

     iteration # 13     ecut=   170.00 Ry     beta= 0.70
     CG style diagonalization
     ethr =  7.00E-09,  avg # of iterations =  3.0

     total cpu time spent up to now is       28.0 secs

     total energy              =     -66.16895713 Ry
     estimated scf accuracy    <       0.00000230 Ry

     iteration # 14     ecut=   170.00 Ry     beta= 0.70
     CG style diagonalization
     ethr =  7.00E-09,  avg # of iterations =  3.0

     total cpu time spent up to now is       28.8 secs

     total energy              =     -66.16895686 Ry
     estimated scf accuracy    <       0.00000254 Ry

     iteration # 15     ecut=   170.00 Ry     beta= 0.70
     CG style diagonalization
     ethr =  7.00E-09,  avg # of iterations =  3.0

     total cpu time spent up to now is       29.6 secs

     total energy              =     -66.16895580 Ry
     estimated scf accuracy    <       0.00000192 Ry

     iteration # 16     ecut=   170.00 Ry     beta= 0.70
     CG style diagonalization
     ethr =  7.00E-09,  avg # of iterations =  3.6

     total cpu time spent up to now is       30.5 secs

     End of self-consistent calculation

          k = 0.0000 0.0000 0.0000 (  3839 PWs)   bands (ev):

     7.3292  13.5083  13.5083  13.5083  15.5716  15.5716  33.0449  37.9116
    37.9116

          k =-0.1250 0.1250-0.1250 (  3819 PWs)   bands (ev):

     7.9319  13.2812  13.7240  13.7240  15.4792  15.4792  33.8438  35.1299
    38.7394

          k =-0.2500 0.2500-0.2500 (  3825 PWs)   bands (ev):

     9.3377  13.2134  13.8680  13.8680  15.7662  15.7662  30.8597  34.5186
    40.2653

          k =-0.3750 0.3750-0.3750 (  3837 PWs)   bands (ev):

    10.0756  13.5882  13.5882  14.9383  16.7002  16.7002  26.1119  33.1024
    38.2846

          k = 0.5000-0.5000 0.5000 (  3828 PWs)   bands (ev):

    10.1042  13.4322  13.4322  17.0125  17.2117  17.2117  23.0931  32.4395
    37.0123

          k = 0.0000 0.2500 0.0000 (  3819 PWs)   bands (ev):

     8.1373  13.0142  13.9334  13.9334  15.0329  15.7833  34.2143  36.1522
    37.5649

          k =-0.1250 0.3750-0.1250 (  3826 PWs)   bands (ev):

     9.3441  12.6270  13.9941  14.2838  15.1863  16.1108  32.7492  35.2794
    37.0714

          k =-0.2500 0.5000-0.2500 (  3832 PWs)   bands (ev):

    10.4397  13.1934  13.4415  14.1338  16.8426  16.8850  27.8727  34.1111
    36.1580

          k = 0.6250-0.3750 0.6250 (  3836 PWs)   bands (ev):

    10.5648  13.0850  13.8669  14.7944  17.2466  19.2579  23.4663  33.0748
    35.9203

          k = 0.5000-0.2500 0.5000 (  3831 PWs)   bands (ev):

    10.6029  13.2003  13.8572  14.5722  16.5640  18.7710  24.8282  33.1037
    35.0293

          k = 0.3750-0.1250 0.3750 (  3833 PWs)   bands (ev):

    10.2563  12.9708  13.6762  14.1522  15.3742  17.1729  29.5567  33.9763
    36.4093

          k = 0.2500 0.0000 0.2500 (  3829 PWs)   bands (ev):

     8.8577  12.9155  13.9409  14.0818  14.9912  15.9983  33.4413  34.6024
    37.4439

          k = 0.0000 0.5000 0.0000 (  3831 PWs)   bands (ev):

    10.0308  11.9733  14.3030  15.1343  15.1343  16.3210  34.6800  34.6800
    35.2573

          k =-0.1250 0.6250-0.1250 (  3849 PWs)   bands (ev):

    10.8380  11.7278  14.0033  15.3655  16.9706  16.9995  29.9166  33.1723
    33.6792

          k = 0.7500-0.2500 0.7500 (  3855 PWs)   bands (ev):

    11.1335  12.2473  13.8206  15.0540  17.3378  20.3258  24.8524  31.4854
    33.2070

          k = 0.6250-0.1250 0.6250 (  3853 PWs)   bands (ev):

    11.4972  12.5954  13.6696  14.8014  16.6221  21.2161  24.5200  29.7501
    35.3255

          k = 0.5000 0.0000 0.5000 (  3845 PWs)   bands (ev):

    11.6085  12.7120  13.0905  14.6871  15.5224  19.0903  28.2230  30.2642
    35.7270

          k = 0.0000 0.7500 0.0000 (  3848 PWs)   bands (ev):

    10.5686  11.0855  16.3916  16.7512  16.7512  16.9020  30.3356  30.8522
    30.8522

          k = 0.8750-0.1250 0.8750 (  3857 PWs)   bands (ev):

    10.6549  11.1164  15.7631  16.5229  17.4678  20.1810  26.3417  29.1156
    30.3754

          k = 0.7500 0.0000 0.7500 (  3851 PWs)   bands (ev):

    11.1059  11.8853  14.4710  15.8963  17.0283  23.2421  24.0443  27.3564
    32.2484

          k = 0.0000-1.0000 0.0000 (  3860 PWs)   bands (ev):

    10.3087  10.7511  17.1575  17.6625  17.6625  19.2858  26.1412  29.0905
    29.0905

          k =-0.2500 0.5000 0.0000 (  3843 PWs)   bands (ev):

    10.5958  12.2398  13.4964  15.1405  15.2119  17.2224  31.0417  33.1042
    35.7777

          k = 0.6250-0.3750 0.8750 (  3848 PWs)   bands (ev):

    11.3455  12.7265  13.0291  14.8405  16.4811  19.1706  26.6807  31.8302
    33.9348

          k = 0.5000-0.2500 0.7500 (  3824 PWs)   bands (ev):

    11.3522  12.5111  13.8930  14.5760  17.0036  21.7480  22.8561  32.1757
    32.7060

          k = 0.7500-0.2500 1.0000 (  3846 PWs)   bands (ev):

    11.1855  11.5433  14.0383  16.2814  16.7408  19.3710  27.9921  29.8536
    31.6444

          k = 0.6250-0.1250 0.8750 (  3844 PWs)   bands (ev):

    11.4988  12.0725  13.6315  15.5790  17.2583  22.6755  24.4995  28.5934
    30.8310

          k = 0.5000 0.0000 0.7500 (  3843 PWs)   bands (ev):

    12.0746  12.4276  12.8272  15.2936  16.7518  21.4554  26.8688  27.2222
    32.4793

          k =-0.2500-1.0000 0.0000 (  3844 PWs)   bands (ev):

    10.8752  11.2703  15.1959  16.3479  17.6641  22.1884  25.1686  28.2211
    29.2721

          k =-0.5000-1.0000 0.0000 (  3852 PWs)   bands (ev):

    11.6875  12.7924  12.7924  15.2603  17.6658  24.5606  25.6705  25.6705
    29.2844

     the Fermi energy is    17.1459 ev

!    total energy              =     -66.16895619 Ry
     estimated scf accuracy    <          2.7E-10 Ry
     smearing contrib. (-TS)   =      -0.00512624 Ry
     internal energy E=F+TS    =     -66.16382995 Ry

     The total energy is F=E-TS. E is the sum of the following terms:
     one-electron contribution =      15.98794910 Ry
     hartree contribution      =       4.33058815 Ry
     xc contribution           =     -24.79154273 Ry
     ewald contribution        =     -61.69082446 Ry

     convergence has been achieved in  16 iterations

     Writing all to output data dir ./Ptbulk.save/
 
     init_run     :     13.91s CPU     14.25s WALL (       1 calls)
     electrons    :     15.37s CPU     15.94s WALL (       1 calls)

     Called by init_run:
     wfcinit      :      0.09s CPU      0.09s WALL (       1 calls)
     potinit      :     12.61s CPU     12.68s WALL (       1 calls)
     hinit0       :      1.18s CPU      1.43s WALL (       1 calls)

     Called by electrons:
     c_bands      :      6.82s CPU      6.86s WALL (      17 calls)
     sum_band     :      1.16s CPU      1.16s WALL (      17 calls)
     v_of_rho     :     18.63s CPU     19.06s WALL (      17 calls)
     newd         :      0.26s CPU      0.26s WALL (      17 calls)
     mix_rho      :      0.18s CPU      0.19s WALL (      17 calls)
     vdW_kernel   :     11.33s CPU     11.33s WALL (       1 calls)

     Called by c_bands:
     init_us_2    :      0.09s CPU      0.12s WALL (      70 calls)
     init_us_2:cp :      0.09s CPU      0.12s WALL (      70 calls)
     ccgdiagg     :      4.97s CPU      4.95s WALL (      34 calls)
     wfcrot       :      1.33s CPU      1.34s WALL (      32 calls)

     Called by *cgdiagg:
     h_psi        :      5.78s CPU      5.60s WALL (    1019 calls)
     s_psi        :      0.14s CPU      0.22s WALL (    2006 calls)

     Called by h_psi:
     h_psi:calbec :      0.15s CPU      0.19s WALL (    1019 calls)
     vloc_psi     :      5.52s CPU      5.23s WALL (    1019 calls)
     add_vuspsi   :      0.09s CPU      0.13s WALL (    1019 calls)
     hs_1psi      :      4.63s CPU      4.48s WALL (     987 calls)
     s_1psi       :      0.13s CPU      0.22s WALL (     987 calls)

     General routines
     calbec       :      0.22s CPU      0.31s WALL (    2040 calls)
     fft          :      1.89s CPU      1.95s WALL (    1038 calls)
     ffts         :      0.03s CPU      0.03s WALL (      17 calls)
     fftw         :      5.36s CPU      5.11s WALL (    2856 calls)
 
     Parallel routines
 
     PWSCF        :     29.50s CPU     32.66s WALL

 
   This run was terminated on:  10:20:27   7Oct2022            

=------------------------------------------------------------------------------=
   JOB DONE.
=------------------------------------------------------------------------------=
