
     Program PWSCF v.7.1 starts on  7Oct2022 at 10:48:15 

     This program is part of the open-source Quantum ESPRESSO suite
     for quantum simulation of materials; please cite
         "P. Giannozzi et al., J. Phys.:Condens. Matter 21 395502 (2009);
         "P. Giannozzi et al., J. Phys.:Condens. Matter 29 465901 (2017);
         "P. Giannozzi et al., J. Chem. Phys. 152 154105 (2020);
          URL http://www.quantum-espresso.org", 
     in publications or presentations arising from this work. More details at
     http://www.quantum-espresso.org/quote

     Parallel version (MPI), running on    24 processors

     MPI processes distributed on     3 nodes
     93565 MiB available memory on the printing compute node when the environment starts
 
     Waiting for input...
     Reading input from standard input

     Current dimensions of program PWSCF are:
     Max number of different atomic species (ntypx) = 10
     Max number of k-points (npk) =  40000
     Max angular momentum in pseudopotentials (lmaxx) =  4
     file Pt.pbe-n-rrkjus_psl.1.0.0.UPF: wavefunction(s)  6S renormalized

     **************************************************************************
     Initializing libbeef V0.1.2 with the BEEF-vdW functional.
     Citation: Wellendorff et al., PRB 85, 235149 (2012).
     **************************************************************************


     IMPORTANT: XC functional enforced from input :
     Exchange-correlation= BEEF-VDW
                           (   1   4  43  14   2   0   0)
     Any further DFT definition will be discarded
     Please, verify this is what you really want

 
     K-points division:     npool     =      24
     Subspace diagonalization in iterative solution of the eigenvalue problem:
     a serial algorithm will be used

 
     G-vector sticks info
     --------------------
     sticks:   dense  smooth     PW     G-vecs:    dense   smooth      PW
     Sum        1333    1333    379                31879    31879    5029
 
     Using Slab Decomposition
 


     bravais-lattice index     =            2
     lattice parameter (alat)  =       7.5200  a.u.
     unit-cell volume          =     106.3148 (a.u.)^3
     number of atoms/cell      =            1
     number of atomic types    =            1
     number of electrons       =        10.00
     number of Kohn-Sham states=            9
     kinetic-energy cutoff     =     170.0000  Ry
     charge density cutoff     =     680.0000  Ry
     scf convergence threshold =      1.0E-09
     mixing beta               =       0.7000
     number of iterations used =            8  plain     mixing
     Exchange-correlation= BEEF-VDW
                           (   1   4  43  14   2   0   0)

     celldm(1)=   7.520000  celldm(2)=   0.000000  celldm(3)=   0.000000
     celldm(4)=   0.000000  celldm(5)=   0.000000  celldm(6)=   0.000000

     crystal axes: (cart. coord. in units of alat)
               a(1) = (  -0.500000   0.000000   0.500000 )  
               a(2) = (   0.000000   0.500000   0.500000 )  
               a(3) = (  -0.500000   0.500000   0.000000 )  

     reciprocal axes: (cart. coord. in units 2 pi/alat)
               b(1) = ( -1.000000 -1.000000  1.000000 )  
               b(2) = (  1.000000  1.000000  1.000000 )  
               b(3) = ( -1.000000  1.000000 -1.000000 )  


     PseudoPot. # 1 for Pt read from file:
     ./pseudo/Pt.pbe-n-rrkjus_psl.1.0.0.UPF
     MD5 check sum: 6bc887cfe28d63a5fc1f72d35a7d3ef7
     Pseudo is Ultrasoft + core correction, Zval = 10.0
     Generated using &quot;atomic&quot; code by A. Dal Corso  v.6.3
     Using radial grid of 1277 points,  6 beta functions with: 
                l(1) =   0
                l(2) =   0
                l(3) =   1
                l(4) =   1
                l(5) =   2
                l(6) =   2
     Q(r) pseudized with 0 coefficients 


     atomic species   valence    mass     pseudopotential
        Pt            10.00   195.07800     Pt( 1.00)

     48 Sym. Ops., with inversion, found



   Cartesian axes

     site n.     atom                  positions (alat units)
         1           Pt  tau(   1) = (   0.0000000   0.0000000   0.0000000  )

     number of k points=    29  Gaussian smearing, width (Ry)=  0.0200
                       cart. coord. in units 2pi/alat
        k(    1) = (   0.0000000   0.0000000   0.0000000), wk =   0.0039062
        k(    2) = (  -0.1250000   0.1250000  -0.1250000), wk =   0.0312500
        k(    3) = (  -0.2500000   0.2500000  -0.2500000), wk =   0.0312500
        k(    4) = (  -0.3750000   0.3750000  -0.3750000), wk =   0.0312500
        k(    5) = (   0.5000000  -0.5000000   0.5000000), wk =   0.0156250
        k(    6) = (   0.0000000   0.2500000   0.0000000), wk =   0.0234375
        k(    7) = (  -0.1250000   0.3750000  -0.1250000), wk =   0.0937500
        k(    8) = (  -0.2500000   0.5000000  -0.2500000), wk =   0.0937500
        k(    9) = (   0.6250000  -0.3750000   0.6250000), wk =   0.0937500
        k(   10) = (   0.5000000  -0.2500000   0.5000000), wk =   0.0937500
        k(   11) = (   0.3750000  -0.1250000   0.3750000), wk =   0.0937500
        k(   12) = (   0.2500000   0.0000000   0.2500000), wk =   0.0468750
        k(   13) = (   0.0000000   0.5000000   0.0000000), wk =   0.0234375
        k(   14) = (  -0.1250000   0.6250000  -0.1250000), wk =   0.0937500
        k(   15) = (   0.7500000  -0.2500000   0.7500000), wk =   0.0937500
        k(   16) = (   0.6250000  -0.1250000   0.6250000), wk =   0.0937500
        k(   17) = (   0.5000000   0.0000000   0.5000000), wk =   0.0468750
        k(   18) = (   0.0000000   0.7500000   0.0000000), wk =   0.0234375
        k(   19) = (   0.8750000  -0.1250000   0.8750000), wk =   0.0937500
        k(   20) = (   0.7500000   0.0000000   0.7500000), wk =   0.0468750
        k(   21) = (   0.0000000  -1.0000000   0.0000000), wk =   0.0117188
        k(   22) = (  -0.2500000   0.5000000   0.0000000), wk =   0.0937500
        k(   23) = (   0.6250000  -0.3750000   0.8750000), wk =   0.1875000
        k(   24) = (   0.5000000  -0.2500000   0.7500000), wk =   0.0937500
        k(   25) = (   0.7500000  -0.2500000   1.0000000), wk =   0.0937500
        k(   26) = (   0.6250000  -0.1250000   0.8750000), wk =   0.1875000
        k(   27) = (   0.5000000   0.0000000   0.7500000), wk =   0.0937500
        k(   28) = (  -0.2500000  -1.0000000   0.0000000), wk =   0.0468750
        k(   29) = (  -0.5000000  -1.0000000   0.0000000), wk =   0.0234375

     Dense  grid:    31879 G-vectors     FFT dimensions: (  45,  45,  45)

     Estimated max dynamical RAM per process >      28.59 MB

     Estimated total dynamical RAM >     507.19 MB

     Initial potential from superposition of free atoms

     starting charge       9.9998, renormalised to      10.0000


     %%%%%%%%%%%%%%%%%%%%%%%%%%%%%%%%%%%%%%%%%%%%%%%%%%%%%%%%%%%%%%%%%%%%%%%%
     %                                                                      %
     % You are using vdW-DF, which was implemented by the Thonhauser group. %
     % Please cite the following two papers that made this development      %
     % possible and the two reviews that describe the various versions:     %
     %                                                                      %
     %   T. Thonhauser et al., PRL 115, 136402 (2015).                      %
     %   T. Thonhauser et al., PRB 76, 125112 (2007).                       %
     %   K. Berland et al., Rep. Prog. Phys. 78, 066501 (2015).             %
     %   D.C. Langreth et al., J. Phys.: Condens. Matter 21, 084203 (2009). %
     %                                                                      %
     % If you are calculating stress with vdW-DF, please also cite:         %
     %                                                                      %
     %   R. Sabatini et al., J. Phys.: Condens. Matter 24, 424209 (2012).   %
     %                                                                      %
     %%%%%%%%%%%%%%%%%%%%%%%%%%%%%%%%%%%%%%%%%%%%%%%%%%%%%%%%%%%%%%%%%%%%%%%%

     %%%%%%%%%%%%%%%%%%%%%%%%%%%%%%%%%%%%%%%%%%%%%%%%%%%%%%%%%%%%%%%%%%%%%%%%
     %                                                                      %
     %  vdW-DF NEWS:                                                        %
     %                                                                      %
     %  * vdW-DF3 is now available. DOI: 10.1021/acs.jctc.0c00471           %
     %    use with input_dft = 'vdW-DF3-opt1' or 'vdW-DF3-opt2'             %
     %                                                                      %
     %  * Unscreened and range-separated vdW-DF hybrid functionals          %
     %    DOI: 10.1063/1.4986522 and 10.1088/1361-648X/ac2ad2               %
     %    use with input_dft = 'vdW-DF-cx0' (etc) and 'vdW-DF-ahcx'         %
     %                                                                      %
     %%%%%%%%%%%%%%%%%%%%%%%%%%%%%%%%%%%%%%%%%%%%%%%%%%%%%%%%%%%%%%%%%%%%%%%%


     Starting wfcs are    9 randomized atomic wfcs

     total cpu time spent up to now is       15.0 secs

     Self-consistent Calculation

     iteration #  1     ecut=   170.00 Ry     beta= 0.70
     CG style diagonalization
     ethr =  1.00E-02,  avg # of iterations =  3.7

     Threshold (ethr) on eigenvalues was too large:
     Diagonalizing with lowered threshold

     CG style diagonalization
     ethr =  1.08E-04,  avg # of iterations =  5.9

     total cpu time spent up to now is       16.9 secs

     total energy              =     -66.16442249 Ry
     estimated scf accuracy    <       0.03195795 Ry

     iteration #  2     ecut=   170.00 Ry     beta= 0.70
     CG style diagonalization
     ethr =  3.20E-04,  avg # of iterations =  3.1

     total cpu time spent up to now is       17.8 secs

     total energy              =     -66.17025547 Ry
     estimated scf accuracy    <       0.00147882 Ry

     iteration #  3     ecut=   170.00 Ry     beta= 0.70
     CG style diagonalization
     ethr =  1.48E-05,  avg # of iterations =  5.0

     total cpu time spent up to now is       18.9 secs

     total energy              =     -66.17123690 Ry
     estimated scf accuracy    <       0.00014542 Ry

     iteration #  4     ecut=   170.00 Ry     beta= 0.70
     CG style diagonalization
     ethr =  1.45E-06,  avg # of iterations =  4.5

     total cpu time spent up to now is       19.9 secs

     total energy              =     -66.17129326 Ry
     estimated scf accuracy    <       0.00002632 Ry

     iteration #  5     ecut=   170.00 Ry     beta= 0.70
     CG style diagonalization
     ethr =  2.63E-07,  avg # of iterations =  4.3

     total cpu time spent up to now is       21.0 secs

     total energy              =     -66.17131689 Ry
     estimated scf accuracy    <       0.00000822 Ry

     iteration #  6     ecut=   170.00 Ry     beta= 0.70
     CG style diagonalization
     ethr =  8.22E-08,  avg # of iterations =  3.4

     total cpu time spent up to now is       21.9 secs

     total energy              =     -66.17131765 Ry
     estimated scf accuracy    <       0.00000144 Ry

     iteration #  7     ecut=   170.00 Ry     beta= 0.70
     CG style diagonalization
     ethr =  1.44E-08,  avg # of iterations =  3.9

     total cpu time spent up to now is       22.9 secs

     total energy              =     -66.17131844 Ry
     estimated scf accuracy    <       0.00000036 Ry

     iteration #  8     ecut=   170.00 Ry     beta= 0.70
     CG style diagonalization
     ethr =  3.57E-09,  avg # of iterations =  3.6

     total cpu time spent up to now is       23.8 secs

     End of self-consistent calculation

          k = 0.0000 0.0000 0.0000 (  3943 PWs)   bands (ev):

     6.8504  12.8523  12.8523  12.8523  14.7954  14.7954  32.2098  36.8619
    36.8620

          k =-0.1250 0.1250-0.1250 (  3945 PWs)   bands (ev):

     7.4334  12.6399  13.0568  13.0568  14.7106  14.7106  32.9362  34.1085
    37.6290

          k =-0.2500 0.2500-0.2500 (  3966 PWs)   bands (ev):

     8.8065  12.5766  13.1939  13.1939  14.9842  14.9842  29.7415  33.5625
    38.9363

          k =-0.3750 0.3750-0.3750 (  3954 PWs)   bands (ev):

     9.5576  12.9304  12.9304  14.2359  15.8619  15.8619  24.9770  32.2275
    37.0263

          k = 0.5000-0.5000 0.5000 (  3996 PWs)   bands (ev):

     9.5972  12.7831  12.7831  16.2874  16.3402  16.3402  21.9613  31.6025
    35.8282

          k = 0.0000 0.2500 0.0000 (  3947 PWs)   bands (ev):

     7.6319  12.3883  13.2549  13.2549  14.2929  14.9953  33.3019  36.4185
    36.4186

          k =-0.1250 0.3750-0.1250 (  3965 PWs)   bands (ev):

     8.8057  12.0230  13.3157  13.5867  14.4401  15.3055  31.6268  34.2723
    35.8202

          k =-0.2500 0.5000-0.2500 (  3984 PWs)   bands (ev):

     9.8987  12.5592  12.7929  13.4460  16.0134  16.0338  26.7329  33.1517
    34.9097

          k = 0.6250-0.3750 0.6250 (  3979 PWs)   bands (ev):

    10.0388  12.4595  13.1947  14.0886  16.3728  18.3657  22.3611  32.1404
    34.7175

          k = 0.5000-0.2500 0.5000 (  3967 PWs)   bands (ev):

    10.0711  12.5675  13.1859  13.8785  15.7352  17.8571  23.7137  32.1029
    33.9017

          k = 0.3750-0.1250 0.3750 (  3971 PWs)   bands (ev):

     9.7047  12.3455  13.0176  13.4641  14.6172  16.3108  28.4127  32.8571
    35.2793

          k = 0.2500 0.0000 0.2500 (  3973 PWs)   bands (ev):

     8.3311  12.2958  13.2634  13.3960  14.2544  15.2004  32.3794  33.5429
    36.3341

          k = 0.0000 0.5000 0.0000 (  3976 PWs)   bands (ev):

     9.4820  11.4052  13.6081  14.3908  14.3908  15.5019  33.4693  33.4694
    34.2024

          k =-0.1250 0.6250-0.1250 (  3986 PWs)   bands (ev):

    10.2930  11.1702  13.3226  14.6089  16.1132  16.1641  28.7666  32.0017
    32.4868

          k = 0.7500-0.2500 0.7500 (  3983 PWs)   bands (ev):

    10.5956  11.6662  13.1501  14.3164  16.4582  19.3641  23.7994  30.2913
    32.0424

          k = 0.6250-0.1250 0.6250 (  3979 PWs)   bands (ev):

    10.9390  11.9974  13.0116  14.0791  15.7900  20.2349  23.4295  28.5794
    34.0796

          k = 0.5000 0.0000 0.5000 (  3991 PWs)   bands (ev):

    11.0213  12.1018  12.4684  13.9715  14.7567  18.1405  27.1012  29.0503
    34.7022

          k = 0.0000 0.7500 0.0000 (  3988 PWs)   bands (ev):

    10.0568  10.5620  15.6230  15.9129  15.9129  16.0477  29.0599  29.7645
    29.7645

          k = 0.8750-0.1250 0.8750 (  3990 PWs)   bands (ev):

    10.1495  10.5896  14.9996  15.6965  16.5805  19.2514  25.2308  27.9715
    29.3087

          k = 0.7500 0.0000 0.7500 (  3995 PWs)   bands (ev):

    10.5806  11.3190  13.7718  15.1102  16.1706  22.2245  23.0079  26.1903
    31.1011

          k = 0.0000-1.0000 0.0000 (  3984 PWs)   bands (ev):

     9.8207  10.2435  16.2871  16.7634  16.7634  18.4823  24.8990  28.0828
    28.0829

          k =-0.2500 0.5000 0.0000 (  3978 PWs)   bands (ev):

    10.0285  11.6564  12.8480  14.3968  14.4655  16.3572  29.8983  31.8681
    34.6591

          k = 0.6250-0.3750 0.8750 (  3980 PWs)   bands (ev):

    10.7828  12.1227  12.3986  14.1158  15.6600  18.2285  25.5699  30.6384
    32.8193

          k = 0.5000-0.2500 0.7500 (  3974 PWs)   bands (ev):

    10.7956  11.9200  13.2255  13.8661  16.1474  20.7917  21.7682  30.9572
    31.5992

          k = 0.7500-0.2500 1.0000 (  3979 PWs)   bands (ev):

    10.6479  10.9947  13.3568  15.4747  15.9029  18.4315  26.8744  28.7311
    30.4553

          k = 0.6250-0.1250 0.8750 (  3987 PWs)   bands (ev):

    10.9543  11.4965  12.9727  14.8137  16.3865  21.6348  23.4689  27.4317
    29.6809

          k = 0.5000 0.0000 0.7500 (  3987 PWs)   bands (ev):

    11.5039  11.8259  12.2105  14.5450  15.9126  20.4551  25.7452  26.1038
    31.2923

          k =-0.2500-1.0000 0.0000 (  3982 PWs)   bands (ev):

    10.3623  10.7347  14.4602  15.5342  16.7648  21.2283  24.0177  27.1791
    28.1518

          k =-0.5000-1.0000 0.0000 (  3996 PWs)   bands (ev):

    11.1388  12.1774  12.1774  14.5144  16.7664  23.4374  24.6234  24.6234
    28.1251

     the Fermi energy is    16.2863 ev

!    total energy              =     -66.17131857 Ry
     estimated scf accuracy    <          4.7E-10 Ry
     smearing contrib. (-TS)   =      -0.00544199 Ry
     internal energy E=F+TS    =     -66.16587657 Ry

     The total energy is F=E-TS. E is the sum of the following terms:
     one-electron contribution =      15.01130937 Ry
     hartree contribution      =       4.54895368 Ry
     xc contribution           =     -24.75722906 Ry
     ewald contribution        =     -60.96891056 Ry

     convergence has been achieved in   8 iterations

     Writing all to output data dir ./Ptbulk.save/
 
     init_run     :     14.64s CPU     14.70s WALL (       1 calls)
     electrons    :      8.60s CPU      8.83s WALL (       1 calls)

     Called by init_run:
     wfcinit      :      0.09s CPU      0.10s WALL (       1 calls)
     potinit      :     13.34s CPU     13.39s WALL (       1 calls)
     hinit0       :      1.17s CPU      1.17s WALL (       1 calls)

     Called by electrons:
     c_bands      :      4.22s CPU      4.23s WALL (       9 calls)
     sum_band     :      0.66s CPU      0.65s WALL (       9 calls)
     v_of_rho     :     15.23s CPU     15.47s WALL (       9 calls)
     newd         :      0.15s CPU      0.15s WALL (       9 calls)
     mix_rho      :      0.07s CPU      0.06s WALL (       9 calls)
     vdW_kernel   :     11.32s CPU     11.33s WALL (       1 calls)

     Called by c_bands:
     init_us_2    :      0.10s CPU      0.06s WALL (      38 calls)
     init_us_2:cp :      0.10s CPU      0.06s WALL (      38 calls)
     ccgdiagg     :      2.80s CPU      2.79s WALL (      18 calls)
     wfcrot       :      0.68s CPU      0.71s WALL (      16 calls)

     Called by *cgdiagg:
     h_psi        :      3.15s CPU      3.10s WALL (     544 calls)
     s_psi        :      0.08s CPU      0.12s WALL (    1072 calls)

     Called by h_psi:
     h_psi:calbec :      0.14s CPU      0.11s WALL (     544 calls)
     vloc_psi     :      2.91s CPU      2.89s WALL (     544 calls)
     add_vuspsi   :      0.08s CPU      0.07s WALL (     544 calls)
     hs_1psi      :      2.53s CPU      2.52s WALL (     528 calls)
     s_1psi       :      0.11s CPU      0.13s WALL (     528 calls)

     General routines
     calbec       :      0.16s CPU      0.18s WALL (    1090 calls)
     fft          :      1.03s CPU      1.06s WALL (     550 calls)
     ffts         :      0.00s CPU      0.02s WALL (       9 calls)
     fftw         :      2.73s CPU      2.74s WALL (    1506 calls)
 
     Parallel routines
 
     PWSCF        :     23.42s CPU     25.00s WALL

 
   This run was terminated on:  10:48:40   7Oct2022            

=------------------------------------------------------------------------------=
   JOB DONE.
=------------------------------------------------------------------------------=
