
     Program PWSCF v.7.1 starts on  7Oct2022 at 10:36:50 

     This program is part of the open-source Quantum ESPRESSO suite
     for quantum simulation of materials; please cite
         "P. Giannozzi et al., J. Phys.:Condens. Matter 21 395502 (2009);
         "P. Giannozzi et al., J. Phys.:Condens. Matter 29 465901 (2017);
         "P. Giannozzi et al., J. Chem. Phys. 152 154105 (2020);
          URL http://www.quantum-espresso.org", 
     in publications or presentations arising from this work. More details at
     http://www.quantum-espresso.org/quote

     Parallel version (MPI), running on    24 processors

     MPI processes distributed on     3 nodes
     87724 MiB available memory on the printing compute node when the environment starts
 
     Waiting for input...
     Reading input from standard input

     Current dimensions of program PWSCF are:
     Max number of different atomic species (ntypx) = 10
     Max number of k-points (npk) =  40000
     Max angular momentum in pseudopotentials (lmaxx) =  4
     file Pt.pbe-n-rrkjus_psl.1.0.0.UPF: wavefunction(s)  6S renormalized

     **************************************************************************
     Initializing libbeef V0.1.2 with the BEEF-vdW functional.
     Citation: Wellendorff et al., PRB 85, 235149 (2012).
     **************************************************************************


     IMPORTANT: XC functional enforced from input :
     Exchange-correlation= BEEF-VDW
                           (   1   4  43  14   2   0   0)
     Any further DFT definition will be discarded
     Please, verify this is what you really want

 
     K-points division:     npool     =      24
     Subspace diagonalization in iterative solution of the eigenvalue problem:
     a serial algorithm will be used

 
     G-vector sticks info
     --------------------
     sticks:   dense  smooth     PW     G-vecs:    dense   smooth      PW
     Sum        1273    1273    367                29795    29795    4693
 
     Using Slab Decomposition
 


     bravais-lattice index     =            2
     lattice parameter (alat)  =       7.3520  a.u.
     unit-cell volume          =      99.3474 (a.u.)^3
     number of atoms/cell      =            1
     number of atomic types    =            1
     number of electrons       =        10.00
     number of Kohn-Sham states=            9
     kinetic-energy cutoff     =     170.0000  Ry
     charge density cutoff     =     680.0000  Ry
     scf convergence threshold =      1.0E-09
     mixing beta               =       0.7000
     number of iterations used =            8  plain     mixing
     Exchange-correlation= BEEF-VDW
                           (   1   4  43  14   2   0   0)

     celldm(1)=   7.352000  celldm(2)=   0.000000  celldm(3)=   0.000000
     celldm(4)=   0.000000  celldm(5)=   0.000000  celldm(6)=   0.000000

     crystal axes: (cart. coord. in units of alat)
               a(1) = (  -0.500000   0.000000   0.500000 )  
               a(2) = (   0.000000   0.500000   0.500000 )  
               a(3) = (  -0.500000   0.500000   0.000000 )  

     reciprocal axes: (cart. coord. in units 2 pi/alat)
               b(1) = ( -1.000000 -1.000000  1.000000 )  
               b(2) = (  1.000000  1.000000  1.000000 )  
               b(3) = ( -1.000000  1.000000 -1.000000 )  


     PseudoPot. # 1 for Pt read from file:
     ./pseudo/Pt.pbe-n-rrkjus_psl.1.0.0.UPF
     MD5 check sum: 6bc887cfe28d63a5fc1f72d35a7d3ef7
     Pseudo is Ultrasoft + core correction, Zval = 10.0
     Generated using &quot;atomic&quot; code by A. Dal Corso  v.6.3
     Using radial grid of 1277 points,  6 beta functions with: 
                l(1) =   0
                l(2) =   0
                l(3) =   1
                l(4) =   1
                l(5) =   2
                l(6) =   2
     Q(r) pseudized with 0 coefficients 


     atomic species   valence    mass     pseudopotential
        Pt            10.00   195.07800     Pt( 1.00)

     48 Sym. Ops., with inversion, found



   Cartesian axes

     site n.     atom                  positions (alat units)
         1           Pt  tau(   1) = (   0.0000000   0.0000000   0.0000000  )

     number of k points=    29  Gaussian smearing, width (Ry)=  0.0200
                       cart. coord. in units 2pi/alat
        k(    1) = (   0.0000000   0.0000000   0.0000000), wk =   0.0039062
        k(    2) = (  -0.1250000   0.1250000  -0.1250000), wk =   0.0312500
        k(    3) = (  -0.2500000   0.2500000  -0.2500000), wk =   0.0312500
        k(    4) = (  -0.3750000   0.3750000  -0.3750000), wk =   0.0312500
        k(    5) = (   0.5000000  -0.5000000   0.5000000), wk =   0.0156250
        k(    6) = (   0.0000000   0.2500000   0.0000000), wk =   0.0234375
        k(    7) = (  -0.1250000   0.3750000  -0.1250000), wk =   0.0937500
        k(    8) = (  -0.2500000   0.5000000  -0.2500000), wk =   0.0937500
        k(    9) = (   0.6250000  -0.3750000   0.6250000), wk =   0.0937500
        k(   10) = (   0.5000000  -0.2500000   0.5000000), wk =   0.0937500
        k(   11) = (   0.3750000  -0.1250000   0.3750000), wk =   0.0937500
        k(   12) = (   0.2500000   0.0000000   0.2500000), wk =   0.0468750
        k(   13) = (   0.0000000   0.5000000   0.0000000), wk =   0.0234375
        k(   14) = (  -0.1250000   0.6250000  -0.1250000), wk =   0.0937500
        k(   15) = (   0.7500000  -0.2500000   0.7500000), wk =   0.0937500
        k(   16) = (   0.6250000  -0.1250000   0.6250000), wk =   0.0937500
        k(   17) = (   0.5000000   0.0000000   0.5000000), wk =   0.0468750
        k(   18) = (   0.0000000   0.7500000   0.0000000), wk =   0.0234375
        k(   19) = (   0.8750000  -0.1250000   0.8750000), wk =   0.0937500
        k(   20) = (   0.7500000   0.0000000   0.7500000), wk =   0.0468750
        k(   21) = (   0.0000000  -1.0000000   0.0000000), wk =   0.0117188
        k(   22) = (  -0.2500000   0.5000000   0.0000000), wk =   0.0937500
        k(   23) = (   0.6250000  -0.3750000   0.8750000), wk =   0.1875000
        k(   24) = (   0.5000000  -0.2500000   0.7500000), wk =   0.0937500
        k(   25) = (   0.7500000  -0.2500000   1.0000000), wk =   0.0937500
        k(   26) = (   0.6250000  -0.1250000   0.8750000), wk =   0.1875000
        k(   27) = (   0.5000000   0.0000000   0.7500000), wk =   0.0937500
        k(   28) = (  -0.2500000  -1.0000000   0.0000000), wk =   0.0468750
        k(   29) = (  -0.5000000  -1.0000000   0.0000000), wk =   0.0234375

     Dense  grid:    29795 G-vectors     FFT dimensions: (  45,  45,  45)

     Estimated max dynamical RAM per process >      27.27 MB

     Estimated total dynamical RAM >     487.12 MB

     Initial potential from superposition of free atoms

     starting charge       9.9998, renormalised to      10.0000


     %%%%%%%%%%%%%%%%%%%%%%%%%%%%%%%%%%%%%%%%%%%%%%%%%%%%%%%%%%%%%%%%%%%%%%%%
     %                                                                      %
     % You are using vdW-DF, which was implemented by the Thonhauser group. %
     % Please cite the following two papers that made this development      %
     % possible and the two reviews that describe the various versions:     %
     %                                                                      %
     %   T. Thonhauser et al., PRL 115, 136402 (2015).                      %
     %   T. Thonhauser et al., PRB 76, 125112 (2007).                       %
     %   K. Berland et al., Rep. Prog. Phys. 78, 066501 (2015).             %
     %   D.C. Langreth et al., J. Phys.: Condens. Matter 21, 084203 (2009). %
     %                                                                      %
     % If you are calculating stress with vdW-DF, please also cite:         %
     %                                                                      %
     %   R. Sabatini et al., J. Phys.: Condens. Matter 24, 424209 (2012).   %
     %                                                                      %
     %%%%%%%%%%%%%%%%%%%%%%%%%%%%%%%%%%%%%%%%%%%%%%%%%%%%%%%%%%%%%%%%%%%%%%%%

     %%%%%%%%%%%%%%%%%%%%%%%%%%%%%%%%%%%%%%%%%%%%%%%%%%%%%%%%%%%%%%%%%%%%%%%%
     %                                                                      %
     %  vdW-DF NEWS:                                                        %
     %                                                                      %
     %  * vdW-DF3 is now available. DOI: 10.1021/acs.jctc.0c00471           %
     %    use with input_dft = 'vdW-DF3-opt1' or 'vdW-DF3-opt2'             %
     %                                                                      %
     %  * Unscreened and range-separated vdW-DF hybrid functionals          %
     %    DOI: 10.1063/1.4986522 and 10.1088/1361-648X/ac2ad2               %
     %    use with input_dft = 'vdW-DF-cx0' (etc) and 'vdW-DF-ahcx'         %
     %                                                                      %
     %%%%%%%%%%%%%%%%%%%%%%%%%%%%%%%%%%%%%%%%%%%%%%%%%%%%%%%%%%%%%%%%%%%%%%%%


     Starting wfcs are    9 randomized atomic wfcs

     total cpu time spent up to now is       15.7 secs

     Self-consistent Calculation

     iteration #  1     ecut=   170.00 Ry     beta= 0.70
     CG style diagonalization
     ethr =  1.00E-02,  avg # of iterations =  3.9

     Threshold (ethr) on eigenvalues was too large:
     Diagonalizing with lowered threshold

     CG style diagonalization
     ethr =  9.60E-05,  avg # of iterations =  6.1

     total cpu time spent up to now is       17.6 secs

     total energy              =     -66.15919419 Ry
     estimated scf accuracy    <       0.03015061 Ry

     iteration #  2     ecut=   170.00 Ry     beta= 0.70
     CG style diagonalization
     ethr =  3.02E-04,  avg # of iterations =  3.1

     total cpu time spent up to now is       18.4 secs

     total energy              =     -66.16375076 Ry
     estimated scf accuracy    <       0.00068061 Ry

     iteration #  3     ecut=   170.00 Ry     beta= 0.70
     CG style diagonalization
     ethr =  6.81E-06,  avg # of iterations =  5.9

     total cpu time spent up to now is       19.6 secs

     total energy              =     -66.16459445 Ry
     estimated scf accuracy    <       0.00023138 Ry

     iteration #  4     ecut=   170.00 Ry     beta= 0.70
     CG style diagonalization
     ethr =  2.31E-06,  avg # of iterations =  4.2

     total cpu time spent up to now is       20.6 secs

     total energy              =     -66.16457149 Ry
     estimated scf accuracy    <       0.00027939 Ry

     iteration #  5     ecut=   170.00 Ry     beta= 0.70
     CG style diagonalization
     ethr =  2.31E-06,  avg # of iterations =  3.4

     total cpu time spent up to now is       21.5 secs

     total energy              =     -66.16463659 Ry
     estimated scf accuracy    <       0.00000036 Ry

     iteration #  6     ecut=   170.00 Ry     beta= 0.70
     CG style diagonalization
     ethr =  3.64E-09,  avg # of iterations =  6.5

     total cpu time spent up to now is       22.7 secs

     total energy              =     -66.16464227 Ry
     estimated scf accuracy    <       0.00000104 Ry

     iteration #  7     ecut=   170.00 Ry     beta= 0.70
     CG style diagonalization
     ethr =  3.64E-09,  avg # of iterations =  3.0

     total cpu time spent up to now is       23.6 secs

     total energy              =     -66.16464175 Ry
     estimated scf accuracy    <       0.00000074 Ry

     iteration #  8     ecut=   170.00 Ry     beta= 0.70
     CG style diagonalization
     ethr =  3.64E-09,  avg # of iterations =  3.6

     total cpu time spent up to now is       24.5 secs

     total energy              =     -66.16464199 Ry
     estimated scf accuracy    <       0.00000005 Ry

     iteration #  9     ecut=   170.00 Ry     beta= 0.70
     CG style diagonalization
     ethr =  5.25E-10,  avg # of iterations =  3.8

     total cpu time spent up to now is       25.4 secs

     total energy              =     -66.16464201 Ry
     estimated scf accuracy    <          7.3E-09 Ry

     iteration # 10     ecut=   170.00 Ry     beta= 0.70
     CG style diagonalization
     ethr =  7.29E-11,  avg # of iterations =  3.4

     total cpu time spent up to now is       26.3 secs

     End of self-consistent calculation

          k = 0.0000 0.0000 0.0000 (  3719 PWs)   bands (ev):

     7.7880  14.1327  14.1327  14.1327  16.3130  16.3130  33.8312  38.8968
    38.8968

          k =-0.1250 0.1250-0.1250 (  3731 PWs)   bands (ev):

     8.4097  13.8913  14.3593  14.3593  16.2131  16.2131  34.6943  36.0914
    39.7814

          k =-0.2500 0.2500-0.2500 (  3717 PWs)   bands (ev):

     9.8459  13.8204  14.5098  14.5098  16.5129  16.5129  31.9087  35.4317
    41.5161

          k =-0.3750 0.3750-0.3750 (  3726 PWs)   bands (ev):

    10.5688  14.2141  14.2141  15.6103  17.5018  17.5018  27.1943  33.9306
    39.4731

          k = 0.5000-0.5000 0.5000 (  3750 PWs)   bands (ev):

    10.5863  14.0496  14.0496  17.7081  18.0461  18.0461  24.1762  33.2282
    38.1288

          k = 0.0000 0.2500 0.0000 (  3715 PWs)   bands (ev):

     8.6217  13.6093  14.5797  14.5797  15.7386  16.5363  35.0742  37.1117
    38.6395

          k =-0.1250 0.3750-0.1250 (  3715 PWs)   bands (ev):

     9.8599  13.2011  14.6399  14.9481  15.8982  16.8804  33.8019  36.2345
    38.2534

          k =-0.2500 0.5000-0.2500 (  3711 PWs)   bands (ev):

    10.9556  13.7981  14.0588  14.7888  17.6351  17.6993  28.9571  35.0193
    37.3420

          k = 0.6250-0.3750 0.6250 (  3721 PWs)   bands (ev):

    11.0654  13.6794  14.5068  15.4685  18.0832  20.1129  24.5236  33.9516
    37.0575

          k = 0.5000-0.2500 0.5000 (  3717 PWs)   bands (ev):

    11.1093  13.8017  14.4961  15.2351  17.3563  19.6467  25.8937  34.0333
    36.1132

          k = 0.3750-0.1250 0.3750 (  3718 PWs)   bands (ev):

    10.7835  13.5668  14.3030  14.8073  16.0963  17.9978  30.6400  35.0259
    37.4960

          k = 0.2500 0.0000 0.2500 (  3705 PWs)   bands (ev):

     9.3625  13.5048  14.5862  14.7351  15.6937  16.7605  34.4359  35.5916
    38.5003

          k = 0.0000 0.5000 0.0000 (  3727 PWs)   bands (ev):

    10.5557  12.5124  14.9652  15.8437  15.8437  17.1041  35.8284  35.8285
    36.2557

          k =-0.1250 0.6250-0.1250 (  3719 PWs)   bands (ev):

    11.3570  12.2573  14.6527  16.0873  17.7911  17.7982  31.0092  34.2845
    34.8042

          k = 0.7500-0.2500 0.7500 (  3717 PWs)   bands (ev):

    11.6444  12.8001  14.4605  15.7572  18.1800  21.2457  25.8571  32.6185
    34.3129

          k = 0.6250-0.1250 0.6250 (  3712 PWs)   bands (ev):

    12.0280  13.1644  14.2977  15.4897  17.4176  22.1528  25.5640  30.8656
    36.5093

          k = 0.5000 0.0000 0.5000 (  3733 PWs)   bands (ev):

    12.1694  13.2931  13.6824  15.3688  16.2530  20.0000  29.2894  31.4252
    36.6947

          k = 0.0000 0.7500 0.0000 (  3720 PWs)   bands (ev):

    11.0545  11.5818  17.1270  17.5527  17.5527  17.7196  31.5517  31.8860
    31.8860

          k = 0.8750-0.1250 0.8750 (  3716 PWs)   bands (ev):

    11.1341  11.6163  16.4925  17.3127  18.3176  21.0721  27.3934  30.2140
    31.3891

          k = 0.7500 0.0000 0.7500 (  3727 PWs)   bands (ev):

    11.6038  12.4243  15.1388  16.6466  17.8488  24.2079  25.0386  28.4730
    33.3397

          k = 0.0000-1.0000 0.0000 (  3692 PWs)   bands (ev):

    10.7710  11.2322  17.9909  18.5239  18.5239  20.0564  27.3285  30.0468
    30.0468

          k =-0.2500 0.5000 0.0000 (  3711 PWs)   bands (ev):

    11.1387  12.7941  14.1130  15.8499  15.9240  18.0505  32.1229  34.2816
    36.8362

          k = 0.6250-0.3750 0.8750 (  3714 PWs)   bands (ev):

    11.8817  13.3007  13.6300  15.5313  17.2656  20.0730  27.7399  32.9635
    34.9860

          k = 0.5000-0.2500 0.7500 (  3702 PWs)   bands (ev):

    11.8822  13.0724  14.5303  15.2524  17.8226  22.6648  23.8949  33.3350
    33.7513

          k = 0.7500-0.2500 1.0000 (  3736 PWs)   bands (ev):

    11.6963  12.0644  14.6887  17.0522  17.5419  20.2710  29.0533  30.9226
    32.7777

          k = 0.6250-0.1250 0.8750 (  3726 PWs)   bands (ev):

    12.0155  12.6207  14.2601  16.3091  18.0927  23.6699  25.4828  29.7023
    31.9271

          k = 0.5000 0.0000 0.7500 (  3718 PWs)   bands (ev):

    12.6160  13.0018  13.4149  16.0074  17.5543  22.4109  27.9403  28.2924
    33.6080

          k =-0.2500-1.0000 0.0000 (  3732 PWs)   bands (ev):

    11.3615  11.7788  15.8985  17.1251  18.5257  23.1096  26.2623  29.2117
    30.3439

          k =-0.5000-1.0000 0.0000 (  3704 PWs)   bands (ev):

    12.2084  13.3784  13.3784  15.9710  18.5275  25.6303  26.6711  26.6711
    30.3919

     the Fermi energy is    17.9695 ev

!    total energy              =     -66.16464201 Ry
     estimated scf accuracy    <          7.6E-10 Ry
     smearing contrib. (-TS)   =      -0.00481711 Ry
     internal energy E=F+TS    =     -66.15982490 Ry

     The total energy is F=E-TS. E is the sum of the following terms:
     one-electron contribution =      16.89129195 Ry
     hartree contribution      =       4.13749734 Ry
     xc contribution           =     -24.82650763 Ry
     ewald contribution        =     -62.36210656 Ry

     convergence has been achieved in  10 iterations

     Writing all to output data dir ./Ptbulk.save/
 
     init_run     :     15.02s CPU     15.29s WALL (       1 calls)
     electrons    :     10.29s CPU     10.66s WALL (       1 calls)

     Called by init_run:
     wfcinit      :      0.09s CPU      0.10s WALL (       1 calls)
     potinit      :     13.66s CPU     13.68s WALL (       1 calls)
     hinit0       :      1.24s CPU      1.47s WALL (       1 calls)

     Called by electrons:
     c_bands      :      4.88s CPU      4.88s WALL (      11 calls)
     sum_band     :      0.75s CPU      0.77s WALL (      11 calls)
     v_of_rho     :     16.84s CPU     17.14s WALL (      11 calls)
     newd         :      0.15s CPU      0.18s WALL (      11 calls)
     mix_rho      :      0.09s CPU      0.09s WALL (      11 calls)
     vdW_kernel   :     11.99s CPU     11.99s WALL (       1 calls)

     Called by c_bands:
     init_us_2    :      0.03s CPU      0.08s WALL (      46 calls)
     init_us_2:cp :      0.03s CPU      0.08s WALL (      46 calls)
     ccgdiagg     :      3.46s CPU      3.46s WALL (      22 calls)
     wfcrot       :      0.90s CPU      0.87s WALL (      20 calls)

     Called by *cgdiagg:
     h_psi        :      3.93s CPU      3.90s WALL (     700 calls)
     s_psi        :      0.11s CPU      0.14s WALL (    1380 calls)

     Called by h_psi:
     h_psi:calbec :      0.11s CPU      0.11s WALL (     700 calls)
     vloc_psi     :      3.71s CPU      3.68s WALL (     700 calls)
     add_vuspsi   :      0.09s CPU      0.09s WALL (     700 calls)
     hs_1psi      :      3.17s CPU      3.16s WALL (     680 calls)
     s_1psi       :      0.11s CPU      0.14s WALL (     680 calls)

     General routines
     calbec       :      0.20s CPU      0.20s WALL (    1402 calls)
     fft          :      1.32s CPU      1.32s WALL (     672 calls)
     ffts         :      0.00s CPU      0.02s WALL (      11 calls)
     fftw         :      3.73s CPU      3.61s WALL (    1918 calls)
 
     Parallel routines
 
     PWSCF        :     25.53s CPU     27.39s WALL

 
   This run was terminated on:  10:37:18   7Oct2022            

=------------------------------------------------------------------------------=
   JOB DONE.
=------------------------------------------------------------------------------=
