
     Program PWSCF v.7.1 starts on  7Oct2022 at 11: 7:18 

     This program is part of the open-source Quantum ESPRESSO suite
     for quantum simulation of materials; please cite
         "P. Giannozzi et al., J. Phys.:Condens. Matter 21 395502 (2009);
         "P. Giannozzi et al., J. Phys.:Condens. Matter 29 465901 (2017);
         "P. Giannozzi et al., J. Chem. Phys. 152 154105 (2020);
          URL http://www.quantum-espresso.org", 
     in publications or presentations arising from this work. More details at
     http://www.quantum-espresso.org/quote

     Parallel version (MPI), running on    24 processors

     MPI processes distributed on     3 nodes
     18689 MiB available memory on the printing compute node when the environment starts
 
     Waiting for input...
     Reading input from standard input

     Current dimensions of program PWSCF are:
     Max number of different atomic species (ntypx) = 10
     Max number of k-points (npk) =  40000
     Max angular momentum in pseudopotentials (lmaxx) =  4
     file Pt.pbe-n-rrkjus_psl.1.0.0.UPF: wavefunction(s)  6S renormalized

     **************************************************************************
     Initializing libbeef V0.1.2 with the BEEF-vdW functional.
     Citation: Wellendorff et al., PRB 85, 235149 (2012).
     **************************************************************************


     IMPORTANT: XC functional enforced from input :
     Exchange-correlation= BEEF-VDW
                           (   1   4  43  14   2   0   0)
     Any further DFT definition will be discarded
     Please, verify this is what you really want

 
     K-points division:     npool     =      24
     Subspace diagonalization in iterative solution of the eigenvalue problem:
     a serial algorithm will be used

 
     G-vector sticks info
     --------------------
     sticks:   dense  smooth     PW     G-vecs:    dense   smooth      PW
     Sum        1345    1345    385                32647    32647    5065
 
     Using Slab Decomposition
 


     bravais-lattice index     =            2
     lattice parameter (alat)  =       7.5800  a.u.
     unit-cell volume          =     108.8799 (a.u.)^3
     number of atoms/cell      =            1
     number of atomic types    =            1
     number of electrons       =        10.00
     number of Kohn-Sham states=            9
     kinetic-energy cutoff     =     170.0000  Ry
     charge density cutoff     =     680.0000  Ry
     scf convergence threshold =      1.0E-09
     mixing beta               =       0.7000
     number of iterations used =            8  plain     mixing
     Exchange-correlation= BEEF-VDW
                           (   1   4  43  14   2   0   0)

     celldm(1)=   7.580000  celldm(2)=   0.000000  celldm(3)=   0.000000
     celldm(4)=   0.000000  celldm(5)=   0.000000  celldm(6)=   0.000000

     crystal axes: (cart. coord. in units of alat)
               a(1) = (  -0.500000   0.000000   0.500000 )  
               a(2) = (   0.000000   0.500000   0.500000 )  
               a(3) = (  -0.500000   0.500000   0.000000 )  

     reciprocal axes: (cart. coord. in units 2 pi/alat)
               b(1) = ( -1.000000 -1.000000  1.000000 )  
               b(2) = (  1.000000  1.000000  1.000000 )  
               b(3) = ( -1.000000  1.000000 -1.000000 )  


     PseudoPot. # 1 for Pt read from file:
     ./pseudo/Pt.pbe-n-rrkjus_psl.1.0.0.UPF
     MD5 check sum: 6bc887cfe28d63a5fc1f72d35a7d3ef7
     Pseudo is Ultrasoft + core correction, Zval = 10.0
     Generated using &quot;atomic&quot; code by A. Dal Corso  v.6.3
     Using radial grid of 1277 points,  6 beta functions with: 
                l(1) =   0
                l(2) =   0
                l(3) =   1
                l(4) =   1
                l(5) =   2
                l(6) =   2
     Q(r) pseudized with 0 coefficients 


     atomic species   valence    mass     pseudopotential
        Pt            10.00   195.07800     Pt( 1.00)

     48 Sym. Ops., with inversion, found



   Cartesian axes

     site n.     atom                  positions (alat units)
         1           Pt  tau(   1) = (   0.0000000   0.0000000   0.0000000  )

     number of k points=    29  Gaussian smearing, width (Ry)=  0.0200
                       cart. coord. in units 2pi/alat
        k(    1) = (   0.0000000   0.0000000   0.0000000), wk =   0.0039062
        k(    2) = (  -0.1250000   0.1250000  -0.1250000), wk =   0.0312500
        k(    3) = (  -0.2500000   0.2500000  -0.2500000), wk =   0.0312500
        k(    4) = (  -0.3750000   0.3750000  -0.3750000), wk =   0.0312500
        k(    5) = (   0.5000000  -0.5000000   0.5000000), wk =   0.0156250
        k(    6) = (   0.0000000   0.2500000   0.0000000), wk =   0.0234375
        k(    7) = (  -0.1250000   0.3750000  -0.1250000), wk =   0.0937500
        k(    8) = (  -0.2500000   0.5000000  -0.2500000), wk =   0.0937500
        k(    9) = (   0.6250000  -0.3750000   0.6250000), wk =   0.0937500
        k(   10) = (   0.5000000  -0.2500000   0.5000000), wk =   0.0937500
        k(   11) = (   0.3750000  -0.1250000   0.3750000), wk =   0.0937500
        k(   12) = (   0.2500000   0.0000000   0.2500000), wk =   0.0468750
        k(   13) = (   0.0000000   0.5000000   0.0000000), wk =   0.0234375
        k(   14) = (  -0.1250000   0.6250000  -0.1250000), wk =   0.0937500
        k(   15) = (   0.7500000  -0.2500000   0.7500000), wk =   0.0937500
        k(   16) = (   0.6250000  -0.1250000   0.6250000), wk =   0.0937500
        k(   17) = (   0.5000000   0.0000000   0.5000000), wk =   0.0468750
        k(   18) = (   0.0000000   0.7500000   0.0000000), wk =   0.0234375
        k(   19) = (   0.8750000  -0.1250000   0.8750000), wk =   0.0937500
        k(   20) = (   0.7500000   0.0000000   0.7500000), wk =   0.0468750
        k(   21) = (   0.0000000  -1.0000000   0.0000000), wk =   0.0117188
        k(   22) = (  -0.2500000   0.5000000   0.0000000), wk =   0.0937500
        k(   23) = (   0.6250000  -0.3750000   0.8750000), wk =   0.1875000
        k(   24) = (   0.5000000  -0.2500000   0.7500000), wk =   0.0937500
        k(   25) = (   0.7500000  -0.2500000   1.0000000), wk =   0.0937500
        k(   26) = (   0.6250000  -0.1250000   0.8750000), wk =   0.1875000
        k(   27) = (   0.5000000   0.0000000   0.7500000), wk =   0.0937500
        k(   28) = (  -0.2500000  -1.0000000   0.0000000), wk =   0.0468750
        k(   29) = (  -0.5000000  -1.0000000   0.0000000), wk =   0.0234375

     Dense  grid:    32647 G-vectors     FFT dimensions: (  45,  45,  45)

     Estimated max dynamical RAM per process >      29.08 MB

     Estimated total dynamical RAM >     514.59 MB

     Initial potential from superposition of free atoms

     starting charge       9.9998, renormalised to      10.0000


     %%%%%%%%%%%%%%%%%%%%%%%%%%%%%%%%%%%%%%%%%%%%%%%%%%%%%%%%%%%%%%%%%%%%%%%%
     %                                                                      %
     % You are using vdW-DF, which was implemented by the Thonhauser group. %
     % Please cite the following two papers that made this development      %
     % possible and the two reviews that describe the various versions:     %
     %                                                                      %
     %   T. Thonhauser et al., PRL 115, 136402 (2015).                      %
     %   T. Thonhauser et al., PRB 76, 125112 (2007).                       %
     %   K. Berland et al., Rep. Prog. Phys. 78, 066501 (2015).             %
     %   D.C. Langreth et al., J. Phys.: Condens. Matter 21, 084203 (2009). %
     %                                                                      %
     % If you are calculating stress with vdW-DF, please also cite:         %
     %                                                                      %
     %   R. Sabatini et al., J. Phys.: Condens. Matter 24, 424209 (2012).   %
     %                                                                      %
     %%%%%%%%%%%%%%%%%%%%%%%%%%%%%%%%%%%%%%%%%%%%%%%%%%%%%%%%%%%%%%%%%%%%%%%%

     %%%%%%%%%%%%%%%%%%%%%%%%%%%%%%%%%%%%%%%%%%%%%%%%%%%%%%%%%%%%%%%%%%%%%%%%
     %                                                                      %
     %  vdW-DF NEWS:                                                        %
     %                                                                      %
     %  * vdW-DF3 is now available. DOI: 10.1021/acs.jctc.0c00471           %
     %    use with input_dft = 'vdW-DF3-opt1' or 'vdW-DF3-opt2'             %
     %                                                                      %
     %  * Unscreened and range-separated vdW-DF hybrid functionals          %
     %    DOI: 10.1063/1.4986522 and 10.1088/1361-648X/ac2ad2               %
     %    use with input_dft = 'vdW-DF-cx0' (etc) and 'vdW-DF-ahcx'         %
     %                                                                      %
     %%%%%%%%%%%%%%%%%%%%%%%%%%%%%%%%%%%%%%%%%%%%%%%%%%%%%%%%%%%%%%%%%%%%%%%%


     Starting wfcs are    9 randomized atomic wfcs

     total cpu time spent up to now is       13.2 secs

     Self-consistent Calculation

     iteration #  1     ecut=   170.00 Ry     beta= 0.70
     CG style diagonalization
     ethr =  1.00E-02,  avg # of iterations =  3.6

     Threshold (ethr) on eigenvalues was too large:
     Diagonalizing with lowered threshold

     CG style diagonalization
     ethr =  1.13E-04,  avg # of iterations =  5.8

     total cpu time spent up to now is       14.7 secs

     total energy              =     -66.16449154 Ry
     estimated scf accuracy    <       0.03208621 Ry

     iteration #  2     ecut=   170.00 Ry     beta= 0.70
     CG style diagonalization
     ethr =  3.21E-04,  avg # of iterations =  3.2

     total cpu time spent up to now is       15.4 secs

     total energy              =     -66.17055658 Ry
     estimated scf accuracy    <       0.00170487 Ry

     iteration #  3     ecut=   170.00 Ry     beta= 0.70
     CG style diagonalization
     ethr =  1.70E-05,  avg # of iterations =  4.7

     total cpu time spent up to now is       16.4 secs

     total energy              =     -66.17159717 Ry
     estimated scf accuracy    <       0.00013981 Ry

     iteration #  4     ecut=   170.00 Ry     beta= 0.70
     CG style diagonalization
     ethr =  1.40E-06,  avg # of iterations =  4.8

     total cpu time spent up to now is       17.3 secs

     total energy              =     -66.17166459 Ry
     estimated scf accuracy    <       0.00002109 Ry

     iteration #  5     ecut=   170.00 Ry     beta= 0.70
     CG style diagonalization
     ethr =  2.11E-07,  avg # of iterations =  4.5

     total cpu time spent up to now is       18.2 secs

     total energy              =     -66.17168560 Ry
     estimated scf accuracy    <       0.00000829 Ry

     iteration #  6     ecut=   170.00 Ry     beta= 0.70
     CG style diagonalization
     ethr =  8.29E-08,  avg # of iterations =  3.3

     total cpu time spent up to now is       18.9 secs

     total energy              =     -66.17168682 Ry
     estimated scf accuracy    <       0.00000084 Ry

     iteration #  7     ecut=   170.00 Ry     beta= 0.70
     CG style diagonalization
     ethr =  8.39E-09,  avg # of iterations =  4.1

     total cpu time spent up to now is       19.8 secs

     total energy              =     -66.17168735 Ry
     estimated scf accuracy    <          1.8E-09 Ry

     iteration #  8     ecut=   170.00 Ry     beta= 0.70
     CG style diagonalization
     ethr =  1.85E-11,  avg # of iterations =  7.0

     total cpu time spent up to now is       20.9 secs

     End of self-consistent calculation

          k = 0.0000 0.0000 0.0000 (  4015 PWs)   bands (ev):

     6.5386  12.4213  12.4213  12.4213  14.2870  14.2870  31.6579  36.1660
    36.1660

          k =-0.1250 0.1250-0.1250 (  4059 PWs)   bands (ev):

     7.1087  12.2186  12.6186  12.6186  14.2070  14.2070  32.3329  33.4336
    36.8922

          k =-0.2500 0.2500-0.2500 (  4062 PWs)   bands (ev):

     8.4599  12.1588  12.7512  12.7512  14.4718  14.4718  29.0007  32.9369
    38.0572

          k =-0.3750 0.3750-0.3750 (  4083 PWs)   bands (ev):

     9.2178  12.4982  12.4982  13.7772  15.3134  15.3134  24.2346  31.6514
    36.1959

          k = 0.5000-0.5000 0.5000 (  4092 PWs)   bands (ev):

     9.2643  12.3565  12.3565  15.7705  15.7705  15.8155  21.2223  31.0494
    35.0461

          k = 0.0000 0.2500 0.0000 (  4063 PWs)   bands (ev):

     7.3029  11.9768  12.8094  12.8094  13.8076  14.4792  32.6990  34.4559
    35.6577

          k =-0.1250 0.3750-0.1250 (  4052 PWs)   bands (ev):

     8.4548  11.6258  12.8702  13.1292  13.9508  14.7783  30.8826  33.6098
    34.9952

          k =-0.2500 0.5000-0.2500 (  4073 PWs)   bands (ev):

     9.5444  12.1436  12.3667  12.9945  15.4710  15.4772  25.9858  32.5198
    34.0889

          k = 0.6250-0.3750 0.6250 (  4063 PWs)   bands (ev):

     9.6934  12.0481  12.7532  13.6266  15.8017  17.7838  21.6396  31.5201
    33.9249

          k = 0.5000-0.2500 0.5000 (  4066 PWs)   bands (ev):

     9.7221  12.1515  12.7449  13.4248  15.1928  17.2606  22.9858  31.4319
    33.1703

          k = 0.3750-0.1250 0.3750 (  4073 PWs)   bands (ev):

     9.3443  11.9353  12.5850  13.0123  14.1208  15.7473  27.6601  32.1139
    34.5453

          k = 0.2500 0.0000 0.2500 (  4067 PWs)   bands (ev):

     7.9881  11.8884  12.8185  12.9457  13.7711  14.6781  31.6739  32.8372
    35.6074

          k = 0.0000 0.5000 0.0000 (  4064 PWs)   bands (ev):

     9.1238  11.0311  13.1524  13.9034  13.9034  14.9659  32.6736  32.6737
    33.5072

          k =-0.1250 0.6250-0.1250 (  4069 PWs)   bands (ev):

     9.9356  10.8033  12.8765  14.1130  15.5527  15.6176  28.0117  31.2334
    31.6994

          k = 0.7500-0.2500 0.7500 (  4077 PWs)   bands (ev):

    10.2419  11.2844  12.7109  13.8326  15.8834  18.7358  23.1105  29.5066
    31.2777

          k = 0.6250-0.1250 0.6250 (  4075 PWs)   bands (ev):

    10.5721  11.6046  12.5806  13.6052  15.2455  19.5931  22.7182  27.8129
    33.2616

          k = 0.5000 0.0000 0.5000 (  4069 PWs)   bands (ev):

    10.6371  11.7012  12.0597  13.5019  14.2547  17.5205  26.3652  28.2575
    34.0257

          k = 0.0000 0.7500 0.0000 (  4076 PWs)   bands (ev):

     9.7201  10.2170  15.1212  15.3644  15.3644  15.4891  28.2247  29.0508
    29.0509

          k = 0.8750-0.1250 0.8750 (  4084 PWs)   bands (ev):

     9.8165  10.2427  14.4997  15.1557  16.0007  18.6453  24.4993  27.2269
    28.6085

          k = 0.7500 0.0000 0.7500 (  4089 PWs)   bands (ev):

    10.2344  10.9471  13.3139  14.5952  15.6097  21.5556  22.3329  25.4299
    30.3487

          k = 0.0000-1.0000 0.0000 (  4088 PWs)   bands (ev):

     9.4991   9.9089  15.7183  16.1760  16.1760  17.9593  24.0873  27.4210
    27.4210

          k =-0.2500 0.5000 0.0000 (  4069 PWs)   bands (ev):

     9.6584  11.2726  12.4219  13.9091  13.9763  15.7917  29.1450  31.0584
    33.9221

          k = 0.6250-0.3750 0.8750 (  4081 PWs)   bands (ev):

    10.4138  11.7258  11.9850  13.6405  15.1226  17.6134  24.8429  29.8565
    32.0819

          k = 0.5000-0.2500 0.7500 (  4072 PWs)   bands (ev):

    10.4304  11.5309  12.7884  13.4002  15.5874  20.1684  21.0566  30.1581
    30.8693

          k = 0.7500-0.2500 1.0000 (  4069 PWs)   bands (ev):

    10.2946  10.6336  12.9104  14.9465  15.3546  17.8183  26.1404  27.9958
    29.6767

          k = 0.6250-0.1250 0.8750 (  4080 PWs)   bands (ev):

    10.5958  11.1181  12.5409  14.3120  15.8165  20.9545  22.7949  26.6722
    28.9277

          k = 0.5000 0.0000 0.7500 (  4080 PWs)   bands (ev):

    11.1280  11.4319  11.8058  14.0541  15.3635  19.8009  25.0098  25.3738
    30.5137

          k =-0.2500-1.0000 0.0000 (  4078 PWs)   bands (ev):

    10.0244  10.3822  13.9785  15.0014  16.1774  20.6032  23.2624  26.4955
    27.4204

          k =-0.5000-1.0000 0.0000 (  4128 PWs)   bands (ev):

    10.7777  11.7738  11.7738  14.0251  16.1788  22.7014  23.9394  23.9394
    27.3673

     the Fermi energy is    15.7245 ev

!    total energy              =     -66.17168741 Ry
     estimated scf accuracy    <          8.6E-11 Ry
     smearing contrib. (-TS)   =      -0.00563254 Ry
     internal energy E=F+TS    =     -66.16605488 Ry

     The total energy is F=E-TS. E is the sum of the following terms:
     one-electron contribution =      14.35561009 Ry
     hartree contribution      =       4.70039443 Ry
     xc contribution           =     -24.73575235 Ry
     ewald contribution        =     -60.48630705 Ry

     convergence has been achieved in   8 iterations

     Writing all to output data dir ./Ptbulk.save/
 
     init_run     :     12.55s CPU     12.79s WALL (       1 calls)
     electrons    :      7.53s CPU      7.75s WALL (       1 calls)

     Called by init_run:
     wfcinit      :      0.08s CPU      0.08s WALL (       1 calls)
     potinit      :     11.43s CPU     11.48s WALL (       1 calls)
     hinit0       :      1.00s CPU      1.18s WALL (       1 calls)

     Called by electrons:
     c_bands      :      3.73s CPU      3.74s WALL (       9 calls)
     sum_band     :      0.53s CPU      0.54s WALL (       9 calls)
     v_of_rho     :     13.12s CPU     13.33s WALL (       9 calls)
     newd         :      0.13s CPU      0.13s WALL (       9 calls)
     mix_rho      :      0.04s CPU      0.05s WALL (       9 calls)
     vdW_kernel   :      9.69s CPU      9.70s WALL (       1 calls)

     Called by c_bands:
     init_us_2    :      0.02s CPU      0.06s WALL (      38 calls)
     init_us_2:cp :      0.02s CPU      0.06s WALL (      38 calls)
     ccgdiagg     :      2.66s CPU      2.65s WALL (      18 calls)
     wfcrot       :      0.59s CPU      0.57s WALL (      16 calls)

     Called by *cgdiagg:
     h_psi        :      2.89s CPU      2.83s WALL (     621 calls)
     s_psi        :      0.11s CPU      0.12s WALL (    1226 calls)

     Called by h_psi:
     h_psi:calbec :      0.13s CPU      0.11s WALL (     621 calls)
     vloc_psi     :      2.67s CPU      2.62s WALL (     621 calls)
     add_vuspsi   :      0.05s CPU      0.07s WALL (     621 calls)
     hs_1psi      :      2.42s CPU      2.38s WALL (     605 calls)
     s_1psi       :      0.13s CPU      0.13s WALL (     605 calls)

     General routines
     calbec       :      0.18s CPU      0.18s WALL (    1244 calls)
     fft          :      0.86s CPU      0.89s WALL (     550 calls)
     ffts         :      0.02s CPU      0.01s WALL (       9 calls)
     fftw         :      2.63s CPU      2.55s WALL (    1660 calls)
 
     Parallel routines
 
     PWSCF        :     20.26s CPU     21.86s WALL

 
   This run was terminated on:  11: 7:40   7Oct2022            

=------------------------------------------------------------------------------=
   JOB DONE.
=------------------------------------------------------------------------------=
