
     Program PWSCF v.7.1 starts on  7Oct2022 at 10:36:50 

     This program is part of the open-source Quantum ESPRESSO suite
     for quantum simulation of materials; please cite
         "P. Giannozzi et al., J. Phys.:Condens. Matter 21 395502 (2009);
         "P. Giannozzi et al., J. Phys.:Condens. Matter 29 465901 (2017);
         "P. Giannozzi et al., J. Chem. Phys. 152 154105 (2020);
          URL http://www.quantum-espresso.org", 
     in publications or presentations arising from this work. More details at
     http://www.quantum-espresso.org/quote

     Parallel version (MPI), running on    24 processors

     MPI processes distributed on     3 nodes
     50476 MiB available memory on the printing compute node when the environment starts
 
     Waiting for input...
     Reading input from standard input

     Current dimensions of program PWSCF are:
     Max number of different atomic species (ntypx) = 10
     Max number of k-points (npk) =  40000
     Max angular momentum in pseudopotentials (lmaxx) =  4
     file Pt.pbe-n-rrkjus_psl.1.0.0.UPF: wavefunction(s)  6S renormalized

     **************************************************************************
     Initializing libbeef V0.1.2 with the BEEF-vdW functional.
     Citation: Wellendorff et al., PRB 85, 235149 (2012).
     **************************************************************************


     IMPORTANT: XC functional enforced from input :
     Exchange-correlation= BEEF-VDW
                           (   1   4  43  14   2   0   0)
     Any further DFT definition will be discarded
     Please, verify this is what you really want

 
     K-points division:     npool     =      24
     Subspace diagonalization in iterative solution of the eigenvalue problem:
     a serial algorithm will be used

 
     G-vector sticks info
     --------------------
     sticks:   dense  smooth     PW     G-vecs:    dense   smooth      PW
     Sum        1261    1261    367                29603    29603    4645
 
     Using Slab Decomposition
 


     bravais-lattice index     =            2
     lattice parameter (alat)  =       7.3220  a.u.
     unit-cell volume          =      98.1362 (a.u.)^3
     number of atoms/cell      =            1
     number of atomic types    =            1
     number of electrons       =        10.00
     number of Kohn-Sham states=            9
     kinetic-energy cutoff     =     170.0000  Ry
     charge density cutoff     =     680.0000  Ry
     scf convergence threshold =      1.0E-09
     mixing beta               =       0.7000
     number of iterations used =            8  plain     mixing
     Exchange-correlation= BEEF-VDW
                           (   1   4  43  14   2   0   0)

     celldm(1)=   7.322000  celldm(2)=   0.000000  celldm(3)=   0.000000
     celldm(4)=   0.000000  celldm(5)=   0.000000  celldm(6)=   0.000000

     crystal axes: (cart. coord. in units of alat)
               a(1) = (  -0.500000   0.000000   0.500000 )  
               a(2) = (   0.000000   0.500000   0.500000 )  
               a(3) = (  -0.500000   0.500000   0.000000 )  

     reciprocal axes: (cart. coord. in units 2 pi/alat)
               b(1) = ( -1.000000 -1.000000  1.000000 )  
               b(2) = (  1.000000  1.000000  1.000000 )  
               b(3) = ( -1.000000  1.000000 -1.000000 )  


     PseudoPot. # 1 for Pt read from file:
     ./pseudo/Pt.pbe-n-rrkjus_psl.1.0.0.UPF
     MD5 check sum: 6bc887cfe28d63a5fc1f72d35a7d3ef7
     Pseudo is Ultrasoft + core correction, Zval = 10.0
     Generated using &quot;atomic&quot; code by A. Dal Corso  v.6.3
     Using radial grid of 1277 points,  6 beta functions with: 
                l(1) =   0
                l(2) =   0
                l(3) =   1
                l(4) =   1
                l(5) =   2
                l(6) =   2
     Q(r) pseudized with 0 coefficients 


     atomic species   valence    mass     pseudopotential
        Pt            10.00   195.07800     Pt( 1.00)

     48 Sym. Ops., with inversion, found



   Cartesian axes

     site n.     atom                  positions (alat units)
         1           Pt  tau(   1) = (   0.0000000   0.0000000   0.0000000  )

     number of k points=    29  Gaussian smearing, width (Ry)=  0.0200
                       cart. coord. in units 2pi/alat
        k(    1) = (   0.0000000   0.0000000   0.0000000), wk =   0.0039062
        k(    2) = (  -0.1250000   0.1250000  -0.1250000), wk =   0.0312500
        k(    3) = (  -0.2500000   0.2500000  -0.2500000), wk =   0.0312500
        k(    4) = (  -0.3750000   0.3750000  -0.3750000), wk =   0.0312500
        k(    5) = (   0.5000000  -0.5000000   0.5000000), wk =   0.0156250
        k(    6) = (   0.0000000   0.2500000   0.0000000), wk =   0.0234375
        k(    7) = (  -0.1250000   0.3750000  -0.1250000), wk =   0.0937500
        k(    8) = (  -0.2500000   0.5000000  -0.2500000), wk =   0.0937500
        k(    9) = (   0.6250000  -0.3750000   0.6250000), wk =   0.0937500
        k(   10) = (   0.5000000  -0.2500000   0.5000000), wk =   0.0937500
        k(   11) = (   0.3750000  -0.1250000   0.3750000), wk =   0.0937500
        k(   12) = (   0.2500000   0.0000000   0.2500000), wk =   0.0468750
        k(   13) = (   0.0000000   0.5000000   0.0000000), wk =   0.0234375
        k(   14) = (  -0.1250000   0.6250000  -0.1250000), wk =   0.0937500
        k(   15) = (   0.7500000  -0.2500000   0.7500000), wk =   0.0937500
        k(   16) = (   0.6250000  -0.1250000   0.6250000), wk =   0.0937500
        k(   17) = (   0.5000000   0.0000000   0.5000000), wk =   0.0468750
        k(   18) = (   0.0000000   0.7500000   0.0000000), wk =   0.0234375
        k(   19) = (   0.8750000  -0.1250000   0.8750000), wk =   0.0937500
        k(   20) = (   0.7500000   0.0000000   0.7500000), wk =   0.0468750
        k(   21) = (   0.0000000  -1.0000000   0.0000000), wk =   0.0117188
        k(   22) = (  -0.2500000   0.5000000   0.0000000), wk =   0.0937500
        k(   23) = (   0.6250000  -0.3750000   0.8750000), wk =   0.1875000
        k(   24) = (   0.5000000  -0.2500000   0.7500000), wk =   0.0937500
        k(   25) = (   0.7500000  -0.2500000   1.0000000), wk =   0.0937500
        k(   26) = (   0.6250000  -0.1250000   0.8750000), wk =   0.1875000
        k(   27) = (   0.5000000   0.0000000   0.7500000), wk =   0.0937500
        k(   28) = (  -0.2500000  -1.0000000   0.0000000), wk =   0.0468750
        k(   29) = (  -0.5000000  -1.0000000   0.0000000), wk =   0.0234375

     Dense  grid:    29603 G-vectors     FFT dimensions: (  45,  45,  45)

     Estimated max dynamical RAM per process >      27.13 MB

     Estimated total dynamical RAM >     484.91 MB

     Initial potential from superposition of free atoms

     starting charge       9.9998, renormalised to      10.0000


     %%%%%%%%%%%%%%%%%%%%%%%%%%%%%%%%%%%%%%%%%%%%%%%%%%%%%%%%%%%%%%%%%%%%%%%%
     %                                                                      %
     % You are using vdW-DF, which was implemented by the Thonhauser group. %
     % Please cite the following two papers that made this development      %
     % possible and the two reviews that describe the various versions:     %
     %                                                                      %
     %   T. Thonhauser et al., PRL 115, 136402 (2015).                      %
     %   T. Thonhauser et al., PRB 76, 125112 (2007).                       %
     %   K. Berland et al., Rep. Prog. Phys. 78, 066501 (2015).             %
     %   D.C. Langreth et al., J. Phys.: Condens. Matter 21, 084203 (2009). %
     %                                                                      %
     % If you are calculating stress with vdW-DF, please also cite:         %
     %                                                                      %
     %   R. Sabatini et al., J. Phys.: Condens. Matter 24, 424209 (2012).   %
     %                                                                      %
     %%%%%%%%%%%%%%%%%%%%%%%%%%%%%%%%%%%%%%%%%%%%%%%%%%%%%%%%%%%%%%%%%%%%%%%%

     %%%%%%%%%%%%%%%%%%%%%%%%%%%%%%%%%%%%%%%%%%%%%%%%%%%%%%%%%%%%%%%%%%%%%%%%
     %                                                                      %
     %  vdW-DF NEWS:                                                        %
     %                                                                      %
     %  * vdW-DF3 is now available. DOI: 10.1021/acs.jctc.0c00471           %
     %    use with input_dft = 'vdW-DF3-opt1' or 'vdW-DF3-opt2'             %
     %                                                                      %
     %  * Unscreened and range-separated vdW-DF hybrid functionals          %
     %    DOI: 10.1063/1.4986522 and 10.1088/1361-648X/ac2ad2               %
     %    use with input_dft = 'vdW-DF-cx0' (etc) and 'vdW-DF-ahcx'         %
     %                                                                      %
     %%%%%%%%%%%%%%%%%%%%%%%%%%%%%%%%%%%%%%%%%%%%%%%%%%%%%%%%%%%%%%%%%%%%%%%%


     Starting wfcs are    9 randomized atomic wfcs

     total cpu time spent up to now is       14.6 secs

     Self-consistent Calculation

     iteration #  1     ecut=   170.00 Ry     beta= 0.70
     CG style diagonalization
     ethr =  1.00E-02,  avg # of iterations =  3.9

     Threshold (ethr) on eigenvalues was too large:
     Diagonalizing with lowered threshold

     CG style diagonalization
     ethr =  9.19E-05,  avg # of iterations =  6.2

     total cpu time spent up to now is       16.5 secs

     total energy              =     -66.15698355 Ry
     estimated scf accuracy    <       0.03020740 Ry

     iteration #  2     ecut=   170.00 Ry     beta= 0.70
     CG style diagonalization
     ethr =  3.02E-04,  avg # of iterations =  3.1

     total cpu time spent up to now is       17.4 secs

     total energy              =     -66.16152371 Ry
     estimated scf accuracy    <       0.00069401 Ry

     iteration #  3     ecut=   170.00 Ry     beta= 0.70
     CG style diagonalization
     ethr =  6.94E-06,  avg # of iterations =  6.0

     total cpu time spent up to now is       18.6 secs

     total energy              =     -66.16237769 Ry
     estimated scf accuracy    <       0.00022412 Ry

     iteration #  4     ecut=   170.00 Ry     beta= 0.70
     CG style diagonalization
     ethr =  2.24E-06,  avg # of iterations =  4.1

     total cpu time spent up to now is       19.5 secs

     total energy              =     -66.16237322 Ry
     estimated scf accuracy    <       0.00019586 Ry

     iteration #  5     ecut=   170.00 Ry     beta= 0.70
     CG style diagonalization
     ethr =  1.96E-06,  avg # of iterations =  3.3

     total cpu time spent up to now is       20.4 secs

     total energy              =     -66.16241836 Ry
     estimated scf accuracy    <       0.00000024 Ry

     iteration #  6     ecut=   170.00 Ry     beta= 0.70
     CG style diagonalization
     ethr =  2.43E-09,  avg # of iterations =  6.6

     total cpu time spent up to now is       21.6 secs

     total energy              =     -66.16242331 Ry
     estimated scf accuracy    <       0.00000107 Ry

     iteration #  7     ecut=   170.00 Ry     beta= 0.70
     CG style diagonalization
     ethr =  2.43E-09,  avg # of iterations =  3.3

     total cpu time spent up to now is       22.5 secs

     total energy              =     -66.16242326 Ry
     estimated scf accuracy    <       0.00000020 Ry

     iteration #  8     ecut=   170.00 Ry     beta= 0.70
     CG style diagonalization
     ethr =  2.03E-09,  avg # of iterations =  3.4

     total cpu time spent up to now is       23.4 secs

     End of self-consistent calculation

          k = 0.0000 0.0000 0.0000 (  3695 PWs)   bands (ev):

     7.9663  14.3742  14.3742  14.3742  16.6004  16.6004  34.1331  39.2742
    39.2743

          k =-0.1250 0.1250-0.1250 (  3695 PWs)   bands (ev):

     8.5954  14.1272  14.6050  14.6050  16.4974  16.4974  35.0201  36.4602
    40.1805

          k =-0.2500 0.2500-0.2500 (  3675 PWs)   bands (ev):

    10.0431  14.0553  14.7580  14.7580  16.8022  16.8022  32.3098  35.7860
    41.9957

          k =-0.3750 0.3750-0.3750 (  3681 PWs)   bands (ev):

    10.7596  14.4561  14.4561  15.8711  17.8126  17.8126  27.6132  34.2498
    39.9302

          k = 0.5000-0.5000 0.5000 (  3708 PWs)   bands (ev):

    10.7727  14.2882  14.2882  17.9785  18.3699  18.3699  24.5963  33.5310
    38.5578

          k = 0.0000 0.2500 0.0000 (  3675 PWs)   bands (ev):

     8.8100  13.8392  14.8297  14.8297  16.0117  16.8281  35.4045  37.4797
    39.0508

          k =-0.1250 0.3750-0.1250 (  3667 PWs)   bands (ev):

    10.0603  13.4229  14.8896  15.2051  16.1739  17.1788  34.2046  36.6031
    38.7081

          k =-0.2500 0.5000-0.2500 (  3676 PWs)   bands (ev):

    11.1554  14.0322  14.2975  15.0422  17.9424  18.0152  29.3761  35.3695
    37.7984

          k = 0.6250-0.3750 0.6250 (  3680 PWs)   bands (ev):

    11.2590  13.9090  14.7541  15.7298  18.4079  20.4450  24.9337  34.2876
    37.4951

          k = 0.5000-0.2500 0.5000 (  3688 PWs)   bands (ev):

    11.3052  14.0340  14.7431  15.4921  17.6635  19.9868  26.3068  34.3873
    36.5345

          k = 0.3750-0.1250 0.3750 (  3678 PWs)   bands (ev):

    10.9880  13.7974  14.5454  15.0607  16.3759  18.3179  31.0571  35.4279
    37.9190

          k = 0.2500 0.0000 0.2500 (  3681 PWs)   bands (ev):

     9.5586  13.7326  14.8358  14.9877  15.9657  17.0560  34.8164  35.9693
    38.9087

          k = 0.0000 0.5000 0.0000 (  3655 PWs)   bands (ev):

    10.7594  12.7205  15.2215  16.1183  16.1183  17.4078  36.2714  36.2714
    36.6399

          k =-0.1250 0.6250-0.1250 (  3659 PWs)   bands (ev):

    11.5577  12.4619  14.9042  16.3669  18.1079  18.1095  31.4310  34.7142
    35.2366

          k = 0.7500-0.2500 0.7500 (  3667 PWs)   bands (ev):

    11.8418  13.0137  14.7084  16.0294  18.5070  21.6026  26.2461  33.0554
    34.7398

          k = 0.6250-0.1250 0.6250 (  3674 PWs)   bands (ev):

    12.2331  13.3845  14.5410  15.7560  17.7260  22.5158  25.9691  31.2972
    36.9665

          k = 0.5000 0.0000 0.5000 (  3669 PWs)   bands (ev):

    12.3868  13.5179  13.9112  15.6325  16.5359  20.3533  29.7012  31.8754
    37.0667

          k = 0.0000 0.7500 0.0000 (  3671 PWs)   bands (ev):

    11.2421  11.7732  17.4124  17.8635  17.8635  18.0368  32.0223  32.2853
    32.2853

          k = 0.8750-0.1250 0.8750 (  3672 PWs)   bands (ev):

    11.3189  11.8092  16.7752  17.6190  18.6476  21.4184  27.7983  30.6412
    31.7806

          k = 0.7500 0.0000 0.7500 (  3660 PWs)   bands (ev):

    11.7958  12.6327  15.3977  16.9373  18.1671  24.5805  25.4250  28.9064
    33.7615

          k = 0.0000-1.0000 0.0000 (  3692 PWs)   bands (ev):

    10.9492  11.4177  18.3144  18.8584  18.8585  20.3559  27.7888  30.4159
    30.4160

          k =-0.2500 0.5000 0.0000 (  3662 PWs)   bands (ev):

    11.3494  13.0083  14.3513  16.1246  16.1997  18.3718  32.5390  34.7370
    37.2440

          k = 0.6250-0.3750 0.8750 (  3672 PWs)   bands (ev):

    12.0892  13.5226  13.8626  15.7987  17.5698  20.4233  28.1498  33.4014
    35.3897

          k = 0.5000-0.2500 0.7500 (  3656 PWs)   bands (ev):

    12.0872  13.2891  14.7773  15.5141  18.1403  23.0209  24.2973  33.7831
    34.1533

          k = 0.7500-0.2500 1.0000 (  3683 PWs)   bands (ev):

    11.8935  12.2656  14.9406  17.3509  17.8526  20.6204  29.4629  31.3361
    33.2162

          k = 0.6250-0.1250 0.8750 (  3676 PWs)   bands (ev):

    12.2149  12.8328  14.5035  16.5918  18.4165  24.0554  25.8636  30.1319
    32.3511

          k = 0.5000 0.0000 0.7500 (  3671 PWs)   bands (ev):

    12.8248  13.2242  13.6423  16.2837  17.8655  22.7812  28.3551  28.7076
    34.0440

          k =-0.2500-1.0000 0.0000 (  3688 PWs)   bands (ev):

    11.5490  11.9752  16.1708  17.4263  18.8604  23.4678  26.6847  29.5944
    30.7597

          k =-0.5000-1.0000 0.0000 (  3676 PWs)   bands (ev):

    12.4095  13.6052  13.6052  16.2459  18.8622  26.0441  27.0590  27.0591
    30.8210

     the Fermi energy is    18.2893 ev

!    total energy              =     -66.16242332 Ry
     estimated scf accuracy    <          5.1E-11 Ry
     smearing contrib. (-TS)   =      -0.00470242 Ry
     internal energy E=F+TS    =     -66.15772090 Ry

     The total energy is F=E-TS. E is the sum of the following terms:
     one-electron contribution =      17.23403896 Ry
     hartree contribution      =       4.06641316 Ry
     xc contribution           =     -24.84055388 Ry
     ewald contribution        =     -62.61761915 Ry

     convergence has been achieved in   8 iterations

     Writing all to output data dir ./Ptbulk.save/
 
     init_run     :     13.40s CPU     14.16s WALL (       1 calls)
     electrons    :      8.58s CPU      8.92s WALL (       1 calls)

     Called by init_run:
     wfcinit      :      0.09s CPU      0.09s WALL (       1 calls)
     potinit      :     12.09s CPU     12.18s WALL (       1 calls)
     hinit0       :      1.18s CPU      1.85s WALL (       1 calls)

     Called by electrons:
     c_bands      :      4.26s CPU      4.26s WALL (       9 calls)
     sum_band     :      0.61s CPU      0.62s WALL (       9 calls)
     v_of_rho     :     15.23s CPU     15.48s WALL (       9 calls)
     newd         :      0.13s CPU      0.11s WALL (       9 calls)
     mix_rho      :      0.05s CPU      0.06s WALL (       9 calls)
     vdW_kernel   :     11.32s CPU     11.33s WALL (       1 calls)

     Called by c_bands:
     init_us_2    :      0.07s CPU      0.06s WALL (      38 calls)
     init_us_2:cp :      0.07s CPU      0.06s WALL (      38 calls)
     ccgdiagg     :      3.03s CPU      3.03s WALL (      18 calls)
     wfcrot       :      0.67s CPU      0.67s WALL (      16 calls)

     Called by *cgdiagg:
     h_psi        :      3.48s CPU      3.29s WALL (     623 calls)
     s_psi        :      0.04s CPU      0.12s WALL (    1230 calls)

     Called by h_psi:
     h_psi:calbec :      0.05s CPU      0.11s WALL (     623 calls)
     vloc_psi     :      3.27s CPU      3.08s WALL (     623 calls)
     add_vuspsi   :      0.10s CPU      0.07s WALL (     623 calls)
     hs_1psi      :      2.91s CPU      2.75s WALL (     607 calls)
     s_1psi       :      0.04s CPU      0.13s WALL (     607 calls)

     General routines
     calbec       :      0.09s CPU      0.18s WALL (    1248 calls)
     fft          :      0.98s CPU      1.03s WALL (     550 calls)
     ffts         :      0.02s CPU      0.02s WALL (       9 calls)
     fftw         :      3.11s CPU      2.98s WALL (    1664 calls)
 
     Parallel routines
 
     PWSCF        :     22.18s CPU     24.65s WALL

 
   This run was terminated on:  10:37:15   7Oct2022            

=------------------------------------------------------------------------------=
   JOB DONE.
=------------------------------------------------------------------------------=
