
     Program PWSCF v.7.1 starts on  7Oct2022 at 10:19:55 

     This program is part of the open-source Quantum ESPRESSO suite
     for quantum simulation of materials; please cite
         "P. Giannozzi et al., J. Phys.:Condens. Matter 21 395502 (2009);
         "P. Giannozzi et al., J. Phys.:Condens. Matter 29 465901 (2017);
         "P. Giannozzi et al., J. Chem. Phys. 152 154105 (2020);
          URL http://www.quantum-espresso.org", 
     in publications or presentations arising from this work. More details at
     http://www.quantum-espresso.org/quote

     Parallel version (MPI), running on    24 processors

     MPI processes distributed on     3 nodes
     95646 MiB available memory on the printing compute node when the environment starts
 
     Waiting for input...
     Reading input from standard input

     Current dimensions of program PWSCF are:
     Max number of different atomic species (ntypx) = 10
     Max number of k-points (npk) =  40000
     Max angular momentum in pseudopotentials (lmaxx) =  4
     file Pt.pbe-n-rrkjus_psl.1.0.0.UPF: wavefunction(s)  6S renormalized

     **************************************************************************
     Initializing libbeef V0.1.2 with the BEEF-vdW functional.
     Citation: Wellendorff et al., PRB 85, 235149 (2012).
     **************************************************************************


     IMPORTANT: XC functional enforced from input :
     Exchange-correlation= BEEF-VDW
                           (   1   4  43  14   2   0   0)
     Any further DFT definition will be discarded
     Please, verify this is what you really want

 
     K-points division:     npool     =      24
     Subspace diagonalization in iterative solution of the eigenvalue problem:
     a serial algorithm will be used

 
     G-vector sticks info
     --------------------
     sticks:   dense  smooth     PW     G-vecs:    dense   smooth      PW
     Sum        1285    1285    379                30827    30827    4909
 
     Using Slab Decomposition
 


     bravais-lattice index     =            2
     lattice parameter (alat)  =       7.4400  a.u.
     unit-cell volume          =     102.9577 (a.u.)^3
     number of atoms/cell      =            1
     number of atomic types    =            1
     number of electrons       =        10.00
     number of Kohn-Sham states=            9
     kinetic-energy cutoff     =     170.0000  Ry
     charge density cutoff     =     680.0000  Ry
     scf convergence threshold =      1.0E-09
     mixing beta               =       0.7000
     number of iterations used =            8  plain     mixing
     Exchange-correlation= BEEF-VDW
                           (   1   4  43  14   2   0   0)

     celldm(1)=   7.440000  celldm(2)=   0.000000  celldm(3)=   0.000000
     celldm(4)=   0.000000  celldm(5)=   0.000000  celldm(6)=   0.000000

     crystal axes: (cart. coord. in units of alat)
               a(1) = (  -0.500000   0.000000   0.500000 )  
               a(2) = (   0.000000   0.500000   0.500000 )  
               a(3) = (  -0.500000   0.500000   0.000000 )  

     reciprocal axes: (cart. coord. in units 2 pi/alat)
               b(1) = ( -1.000000 -1.000000  1.000000 )  
               b(2) = (  1.000000  1.000000  1.000000 )  
               b(3) = ( -1.000000  1.000000 -1.000000 )  


     PseudoPot. # 1 for Pt read from file:
     ./pseudo/Pt.pbe-n-rrkjus_psl.1.0.0.UPF
     MD5 check sum: 6bc887cfe28d63a5fc1f72d35a7d3ef7
     Pseudo is Ultrasoft + core correction, Zval = 10.0
     Generated using &quot;atomic&quot; code by A. Dal Corso  v.6.3
     Using radial grid of 1277 points,  6 beta functions with: 
                l(1) =   0
                l(2) =   0
                l(3) =   1
                l(4) =   1
                l(5) =   2
                l(6) =   2
     Q(r) pseudized with 0 coefficients 


     atomic species   valence    mass     pseudopotential
        Pt            10.00   195.07800     Pt( 1.00)

     48 Sym. Ops., with inversion, found



   Cartesian axes

     site n.     atom                  positions (alat units)
         1           Pt  tau(   1) = (   0.0000000   0.0000000   0.0000000  )

     number of k points=    29  Gaussian smearing, width (Ry)=  0.0200
                       cart. coord. in units 2pi/alat
        k(    1) = (   0.0000000   0.0000000   0.0000000), wk =   0.0039062
        k(    2) = (  -0.1250000   0.1250000  -0.1250000), wk =   0.0312500
        k(    3) = (  -0.2500000   0.2500000  -0.2500000), wk =   0.0312500
        k(    4) = (  -0.3750000   0.3750000  -0.3750000), wk =   0.0312500
        k(    5) = (   0.5000000  -0.5000000   0.5000000), wk =   0.0156250
        k(    6) = (   0.0000000   0.2500000   0.0000000), wk =   0.0234375
        k(    7) = (  -0.1250000   0.3750000  -0.1250000), wk =   0.0937500
        k(    8) = (  -0.2500000   0.5000000  -0.2500000), wk =   0.0937500
        k(    9) = (   0.6250000  -0.3750000   0.6250000), wk =   0.0937500
        k(   10) = (   0.5000000  -0.2500000   0.5000000), wk =   0.0937500
        k(   11) = (   0.3750000  -0.1250000   0.3750000), wk =   0.0937500
        k(   12) = (   0.2500000   0.0000000   0.2500000), wk =   0.0468750
        k(   13) = (   0.0000000   0.5000000   0.0000000), wk =   0.0234375
        k(   14) = (  -0.1250000   0.6250000  -0.1250000), wk =   0.0937500
        k(   15) = (   0.7500000  -0.2500000   0.7500000), wk =   0.0937500
        k(   16) = (   0.6250000  -0.1250000   0.6250000), wk =   0.0937500
        k(   17) = (   0.5000000   0.0000000   0.5000000), wk =   0.0468750
        k(   18) = (   0.0000000   0.7500000   0.0000000), wk =   0.0234375
        k(   19) = (   0.8750000  -0.1250000   0.8750000), wk =   0.0937500
        k(   20) = (   0.7500000   0.0000000   0.7500000), wk =   0.0468750
        k(   21) = (   0.0000000  -1.0000000   0.0000000), wk =   0.0117188
        k(   22) = (  -0.2500000   0.5000000   0.0000000), wk =   0.0937500
        k(   23) = (   0.6250000  -0.3750000   0.8750000), wk =   0.1875000
        k(   24) = (   0.5000000  -0.2500000   0.7500000), wk =   0.0937500
        k(   25) = (   0.7500000  -0.2500000   1.0000000), wk =   0.0937500
        k(   26) = (   0.6250000  -0.1250000   0.8750000), wk =   0.1875000
        k(   27) = (   0.5000000   0.0000000   0.7500000), wk =   0.0937500
        k(   28) = (  -0.2500000  -1.0000000   0.0000000), wk =   0.0468750
        k(   29) = (  -0.5000000  -1.0000000   0.0000000), wk =   0.0234375

     Dense  grid:    30827 G-vectors     FFT dimensions: (  45,  45,  45)

     Estimated max dynamical RAM per process >      27.93 MB

     Estimated total dynamical RAM >     497.16 MB

     Initial potential from superposition of free atoms

     starting charge       9.9998, renormalised to      10.0000


     %%%%%%%%%%%%%%%%%%%%%%%%%%%%%%%%%%%%%%%%%%%%%%%%%%%%%%%%%%%%%%%%%%%%%%%%
     %                                                                      %
     % You are using vdW-DF, which was implemented by the Thonhauser group. %
     % Please cite the following two papers that made this development      %
     % possible and the two reviews that describe the various versions:     %
     %                                                                      %
     %   T. Thonhauser et al., PRL 115, 136402 (2015).                      %
     %   T. Thonhauser et al., PRB 76, 125112 (2007).                       %
     %   K. Berland et al., Rep. Prog. Phys. 78, 066501 (2015).             %
     %   D.C. Langreth et al., J. Phys.: Condens. Matter 21, 084203 (2009). %
     %                                                                      %
     % If you are calculating stress with vdW-DF, please also cite:         %
     %                                                                      %
     %   R. Sabatini et al., J. Phys.: Condens. Matter 24, 424209 (2012).   %
     %                                                                      %
     %%%%%%%%%%%%%%%%%%%%%%%%%%%%%%%%%%%%%%%%%%%%%%%%%%%%%%%%%%%%%%%%%%%%%%%%

     %%%%%%%%%%%%%%%%%%%%%%%%%%%%%%%%%%%%%%%%%%%%%%%%%%%%%%%%%%%%%%%%%%%%%%%%
     %                                                                      %
     %  vdW-DF NEWS:                                                        %
     %                                                                      %
     %  * vdW-DF3 is now available. DOI: 10.1021/acs.jctc.0c00471           %
     %    use with input_dft = 'vdW-DF3-opt1' or 'vdW-DF3-opt2'             %
     %                                                                      %
     %  * Unscreened and range-separated vdW-DF hybrid functionals          %
     %    DOI: 10.1063/1.4986522 and 10.1088/1361-648X/ac2ad2               %
     %    use with input_dft = 'vdW-DF-cx0' (etc) and 'vdW-DF-ahcx'         %
     %                                                                      %
     %%%%%%%%%%%%%%%%%%%%%%%%%%%%%%%%%%%%%%%%%%%%%%%%%%%%%%%%%%%%%%%%%%%%%%%%


     Starting wfcs are    9 randomized atomic wfcs

     total cpu time spent up to now is       15.1 secs

     Self-consistent Calculation

     iteration #  1     ecut=   170.00 Ry     beta= 0.70
     CG style diagonalization
     ethr =  1.00E-02,  avg # of iterations =  3.7

     Threshold (ethr) on eigenvalues was too large:
     Diagonalizing with lowered threshold

     CG style diagonalization
     ethr =  1.01E-04,  avg # of iterations =  6.1

     total cpu time spent up to now is       17.0 secs

     total energy              =     -66.16305099 Ry
     estimated scf accuracy    <       0.03125708 Ry

     iteration #  2     ecut=   170.00 Ry     beta= 0.70
     CG style diagonalization
     ethr =  3.13E-04,  avg # of iterations =  3.1

     total cpu time spent up to now is       17.8 secs

     total energy              =     -66.16830081 Ry
     estimated scf accuracy    <       0.00101362 Ry

     iteration #  3     ecut=   170.00 Ry     beta= 0.70
     CG style diagonalization
     ethr =  1.01E-05,  avg # of iterations =  5.5

     total cpu time spent up to now is       19.0 secs

     total energy              =     -66.16921096 Ry
     estimated scf accuracy    <       0.00018715 Ry

     iteration #  4     ecut=   170.00 Ry     beta= 0.70
     CG style diagonalization
     ethr =  1.87E-06,  avg # of iterations =  4.2

     total cpu time spent up to now is       20.0 secs

     total energy              =     -66.16923027 Ry
     estimated scf accuracy    <       0.00010150 Ry

     iteration #  5     ecut=   170.00 Ry     beta= 0.70
     CG style diagonalization
     ethr =  1.02E-06,  avg # of iterations =  3.4

     total cpu time spent up to now is       20.9 secs

     total energy              =     -66.16926373 Ry
     estimated scf accuracy    <       0.00000220 Ry

     iteration #  6     ecut=   170.00 Ry     beta= 0.70
     CG style diagonalization
     ethr =  2.20E-08,  avg # of iterations =  4.9

     total cpu time spent up to now is       21.9 secs

     total energy              =     -66.16926925 Ry
     estimated scf accuracy    <       0.00000116 Ry

     iteration #  7     ecut=   170.00 Ry     beta= 0.70
     CG style diagonalization
     ethr =  1.16E-08,  avg # of iterations =  3.1

     total cpu time spent up to now is       22.8 secs

     total energy              =     -66.16926833 Ry
     estimated scf accuracy    <       0.00000223 Ry

     iteration #  8     ecut=   170.00 Ry     beta= 0.70
     CG style diagonalization
     ethr =  1.16E-08,  avg # of iterations =  3.1

     total cpu time spent up to now is       23.7 secs

     total energy              =     -66.16926844 Ry
     estimated scf accuracy    <       0.00000026 Ry

     iteration #  9     ecut=   170.00 Ry     beta= 0.70
     CG style diagonalization
     ethr =  2.57E-09,  avg # of iterations =  3.5

     total cpu time spent up to now is       24.6 secs

     total energy              =     -66.16926851 Ry
     estimated scf accuracy    <       0.00000002 Ry

     iteration # 10     ecut=   170.00 Ry     beta= 0.70
     CG style diagonalization
     ethr =  2.16E-10,  avg # of iterations =  4.6

     total cpu time spent up to now is       25.7 secs

     total energy              =     -66.16926853 Ry
     estimated scf accuracy    <          1.8E-09 Ry

     iteration # 11     ecut=   170.00 Ry     beta= 0.70
     CG style diagonalization
     ethr =  1.78E-11,  avg # of iterations =  4.1

     total cpu time spent up to now is       26.7 secs

     End of self-consistent calculation

          k = 0.0000 0.0000 0.0000 (  3839 PWs)   bands (ev):

     7.2845  13.4476  13.4476  13.4476  15.4998  15.4998  32.9676  37.8146
    37.8146

          k =-0.1250 0.1250-0.1250 (  3825 PWs)   bands (ev):

     7.8854  13.2219  13.6623  13.6623  15.4081  15.4081  33.7599  35.0354
    38.6369

          k =-0.2500 0.2500-0.2500 (  3831 PWs)   bands (ev):

     9.2882  13.1545  13.8056  13.8056  15.6939  15.6939  30.7565  34.4295
    40.1426

          k =-0.3750 0.3750-0.3750 (  3840 PWs)   bands (ev):

    10.0275  13.5274  13.5274  14.8729  16.6225  16.6225  26.0065  33.0212
    38.1682

          k = 0.5000-0.5000 0.5000 (  3828 PWs)   bands (ev):

    10.0572  13.3722  13.3722  16.9448  17.1310  17.1310  22.9880  32.3620
    36.9028

          k = 0.0000 0.2500 0.0000 (  3831 PWs)   bands (ev):

     8.0901  12.9564  13.8706  13.8706  14.9645  15.7104  34.1298  36.0578
    37.4592

          k =-0.1250 0.3750-0.1250 (  3841 PWs)   bands (ev):

     9.2939  12.5712  13.9314  14.2193  15.1173  16.0362  32.6457  35.1860
    36.9556

          k =-0.2500 0.5000-0.2500 (  3832 PWs)   bands (ev):

    10.3895  13.1346  13.3816  14.0702  16.7657  16.8061  27.7669  34.0221
    36.0424

          k = 0.6250-0.3750 0.6250 (  3840 PWs)   bands (ev):

    10.5161  13.0272  13.8048  14.7289  17.1656  19.1750  23.3636  32.9885
    35.8089

          k = 0.5000-0.2500 0.5000 (  3847 PWs)   bands (ev):

    10.5536  13.1418  13.7951  14.5078  16.4873  18.6862  24.7246  33.0118
    34.9240

          k = 0.3750-0.1250 0.3750 (  3851 PWs)   bands (ev):

    10.2050  12.9129  13.6153  14.0886  15.3041  17.0930  29.4508  33.8731
    36.3038

          k = 0.2500 0.0000 0.2500 (  3849 PWs)   bands (ev):

     8.8086  12.8583  13.8783  14.0184  14.9230  15.9244  33.3434  34.5048
    37.3407

          k = 0.0000 0.5000 0.0000 (  3895 PWs)   bands (ev):

     9.9797  11.9208  14.2387  15.0655  15.0655  16.2451  34.5678  34.5678
    35.1596

          k =-0.1250 0.6250-0.1250 (  3858 PWs)   bands (ev):

    10.7874  11.6762  13.9402  15.2955  16.8911  16.9221  29.8099  33.0637
    33.5690

          k = 0.7500-0.2500 0.7500 (  3863 PWs)   bands (ev):

    11.0837  12.1936  13.7584  14.9857  17.2563  20.2365  24.7546  31.3748
    33.0990

          k = 0.6250-0.1250 0.6250 (  3867 PWs)   bands (ev):

    11.4456  12.5401  13.6086  14.7346  16.5451  21.1250  24.4186  29.6414
    35.2099

          k = 0.5000 0.0000 0.5000 (  3845 PWs)   bands (ev):

    11.5540  12.6556  13.0330  14.6210  15.4515  19.0021  28.1190  30.1514
    35.6322

          k = 0.0000 0.7500 0.0000 (  3872 PWs)   bands (ev):

    10.5212  11.0371  16.3201  16.6735  16.6735  16.8229  30.2172  30.7512
    30.7512

          k = 0.8750-0.1250 0.8750 (  3873 PWs)   bands (ev):

    10.6082  11.0677  15.6923  16.4463  17.3856  20.0945  26.2389  29.0091
    30.2764

          k = 0.7500 0.0000 0.7500 (  3871 PWs)   bands (ev):

    11.0573  11.8329  14.4062  15.8235  16.9488  23.1478  23.9479  27.2480
    32.1419

          k = 0.0000-1.0000 0.0000 (  3892 PWs)   bands (ev):

    10.2637  10.7042  17.0769  17.5791  17.5791  19.2109  26.0258  28.9970
    28.9970

          k =-0.2500 0.5000 0.0000 (  3851 PWs)   bands (ev):

    10.5430  12.1859  13.4365  15.0717  15.1428  17.1422  30.9358  32.9895
    35.6740

          k = 0.6250-0.3750 0.8750 (  3862 PWs)   bands (ev):

    11.2934  12.6707  12.9707  14.7734  16.4050  19.0832  26.5776  31.7197
    33.8317

          k = 0.5000-0.2500 0.7500 (  3874 PWs)   bands (ev):

    11.3006  12.4565  13.8311  14.5104  16.9242  21.6591  22.7551  32.0626
    32.6035

          k = 0.7500-0.2500 1.0000 (  3846 PWs)   bands (ev):

    11.1358  11.4926  13.9752  16.2067  16.6632  19.2837  27.8884  29.7494
    31.5340

          k = 0.6250-0.1250 0.8750 (  3853 PWs)   bands (ev):

    11.4484  12.0192  13.5705  15.5082  17.1775  22.5789  24.4038  28.4854
    30.7243

          k = 0.5000 0.0000 0.7500 (  3855 PWs)   bands (ev):

    12.0218  12.3718  12.7701  15.2243  16.6741  21.3626  26.7645  27.1183
    32.3692

          k =-0.2500-1.0000 0.0000 (  3858 PWs)   bands (ev):

    10.8278  11.2208  15.1277  16.2725  17.5808  22.0990  25.0619  28.1244
    29.1679

          k =-0.5000-1.0000 0.0000 (  3852 PWs)   bands (ev):

    11.6367  12.7354  12.7354  15.1913  17.5824  24.4564  25.5731  25.5731
    29.1767

     the Fermi energy is    17.0662 ev

!    total energy              =     -66.16926853 Ry
     estimated scf accuracy    <          5.4E-11 Ry
     smearing contrib. (-TS)   =      -0.00515611 Ry
     internal energy E=F+TS    =     -66.16411243 Ry

     The total energy is F=E-TS. E is the sum of the following terms:
     one-electron contribution =      15.89834713 Ry
     hartree contribution      =       4.35041498 Ry
     xc contribution           =     -24.78838430 Ry
     ewald contribution        =     -61.62449024 Ry

     convergence has been achieved in  11 iterations

     Writing all to output data dir ./Ptbulk.save/
 
     init_run     :     13.96s CPU     14.67s WALL (       1 calls)
     electrons    :     11.27s CPU     11.78s WALL (       1 calls)

     Called by init_run:
     wfcinit      :      0.08s CPU      0.11s WALL (       1 calls)
     potinit      :     12.58s CPU     12.58s WALL (       1 calls)
     hinit0       :      1.25s CPU      1.93s WALL (       1 calls)

     Called by electrons:
     c_bands      :      5.15s CPU      5.17s WALL (      12 calls)
     sum_band     :      0.85s CPU      0.85s WALL (      12 calls)
     v_of_rho     :     17.39s CPU     17.61s WALL (      12 calls)
     newd         :      0.18s CPU      0.20s WALL (      12 calls)
     mix_rho      :      0.13s CPU      0.11s WALL (      12 calls)
     vdW_kernel   :     11.99s CPU     11.99s WALL (       1 calls)

     Called by c_bands:
     init_us_2    :      0.04s CPU      0.09s WALL (      50 calls)
     init_us_2:cp :      0.04s CPU      0.09s WALL (      50 calls)
     ccgdiagg     :      3.69s CPU      3.71s WALL (      24 calls)
     wfcrot       :      0.97s CPU      0.97s WALL (      22 calls)

     Called by *cgdiagg:
     h_psi        :      4.07s CPU      4.18s WALL (     744 calls)
     s_psi        :      0.27s CPU      0.16s WALL (    1466 calls)

     Called by h_psi:
     h_psi:calbec :      0.09s CPU      0.13s WALL (     744 calls)
     vloc_psi     :      3.82s CPU      3.94s WALL (     744 calls)
     add_vuspsi   :      0.14s CPU      0.09s WALL (     744 calls)
     hs_1psi      :      3.29s CPU      3.37s WALL (     722 calls)
     s_1psi       :      0.22s CPU      0.15s WALL (     722 calls)

     General routines
     calbec       :      0.18s CPU      0.22s WALL (    1490 calls)
     fft          :      1.47s CPU      1.44s WALL (     733 calls)
     ffts         :      0.01s CPU      0.02s WALL (      12 calls)
     fftw         :      3.66s CPU      3.86s WALL (    2056 calls)
 
     Parallel routines
 
     PWSCF        :     25.45s CPU     28.39s WALL

 
   This run was terminated on:  10:20:23   7Oct2022            

=------------------------------------------------------------------------------=
   JOB DONE.
=------------------------------------------------------------------------------=
