
     Program PWSCF v.7.1 starts on 10Oct2022 at  9:47: 6 

     This program is part of the open-source Quantum ESPRESSO suite
     for quantum simulation of materials; please cite
         "P. Giannozzi et al., J. Phys.:Condens. Matter 21 395502 (2009);
         "P. Giannozzi et al., J. Phys.:Condens. Matter 29 465901 (2017);
         "P. Giannozzi et al., J. Chem. Phys. 152 154105 (2020);
          URL http://www.quantum-espresso.org", 
     in publications or presentations arising from this work. More details at
     http://www.quantum-espresso.org/quote

     Parallel version (MPI), running on    24 processors

     MPI processes distributed on     3 nodes
     93322 MiB available memory on the printing compute node when the environment starts
 
     Waiting for input...
     Reading input from standard input

     Current dimensions of program PWSCF are:
     Max number of different atomic species (ntypx) = 10
     Max number of k-points (npk) =  40000
     Max angular momentum in pseudopotentials (lmaxx) =  4
     file Pt.pbe-n-rrkjus_psl.1.0.0.UPF: wavefunction(s)  6S renormalized

     **************************************************************************
     Initializing libbeef V0.1.2 with the BEEF-vdW functional.
     Citation: Wellendorff et al., PRB 85, 235149 (2012).
     **************************************************************************


     IMPORTANT: XC functional enforced from input :
     Exchange-correlation= BEEF-VDW
                           (   1   4  43  14   2   0   0)
     Any further DFT definition will be discarded
     Please, verify this is what you really want

 
     K-points division:     npool     =      24
     Subspace diagonalization in iterative solution of the eigenvalue problem:
     a serial algorithm will be used

 
     G-vector sticks info
     --------------------
     sticks:   dense  smooth     PW     G-vecs:    dense   smooth      PW
     Sum        1345    1345    385                32647    32647    5065
 
     Using Slab Decomposition
 


     bravais-lattice index     =            2
     lattice parameter (alat)  =       7.5770  a.u.
     unit-cell volume          =     108.7507 (a.u.)^3
     number of atoms/cell      =            1
     number of atomic types    =            1
     number of electrons       =        10.00
     number of Kohn-Sham states=            9
     kinetic-energy cutoff     =     170.0000  Ry
     charge density cutoff     =     680.0000  Ry
     scf convergence threshold =      1.0E-09
     mixing beta               =       0.7000
     number of iterations used =            8  plain     mixing
     Exchange-correlation= BEEF-VDW
                           (   1   4  43  14   2   0   0)

     celldm(1)=   7.577000  celldm(2)=   0.000000  celldm(3)=   0.000000
     celldm(4)=   0.000000  celldm(5)=   0.000000  celldm(6)=   0.000000

     crystal axes: (cart. coord. in units of alat)
               a(1) = (  -0.500000   0.000000   0.500000 )  
               a(2) = (   0.000000   0.500000   0.500000 )  
               a(3) = (  -0.500000   0.500000   0.000000 )  

     reciprocal axes: (cart. coord. in units 2 pi/alat)
               b(1) = ( -1.000000 -1.000000  1.000000 )  
               b(2) = (  1.000000  1.000000  1.000000 )  
               b(3) = ( -1.000000  1.000000 -1.000000 )  


     PseudoPot. # 1 for Pt read from file:
     ./pseudo/Pt.pbe-n-rrkjus_psl.1.0.0.UPF
     MD5 check sum: 6bc887cfe28d63a5fc1f72d35a7d3ef7
     Pseudo is Ultrasoft + core correction, Zval = 10.0
     Generated using &quot;atomic&quot; code by A. Dal Corso  v.6.3
     Using radial grid of 1277 points,  6 beta functions with: 
                l(1) =   0
                l(2) =   0
                l(3) =   1
                l(4) =   1
                l(5) =   2
                l(6) =   2
     Q(r) pseudized with 0 coefficients 


     atomic species   valence    mass     pseudopotential
        Pt            10.00   195.07800     Pt( 1.00)

     48 Sym. Ops., with inversion, found



   Cartesian axes

     site n.     atom                  positions (alat units)
         1           Pt  tau(   1) = (   0.0000000   0.0000000   0.0000000  )

     number of k points=    29  Gaussian smearing, width (Ry)=  0.0200
                       cart. coord. in units 2pi/alat
        k(    1) = (   0.0000000   0.0000000   0.0000000), wk =   0.0039062
        k(    2) = (  -0.1250000   0.1250000  -0.1250000), wk =   0.0312500
        k(    3) = (  -0.2500000   0.2500000  -0.2500000), wk =   0.0312500
        k(    4) = (  -0.3750000   0.3750000  -0.3750000), wk =   0.0312500
        k(    5) = (   0.5000000  -0.5000000   0.5000000), wk =   0.0156250
        k(    6) = (   0.0000000   0.2500000   0.0000000), wk =   0.0234375
        k(    7) = (  -0.1250000   0.3750000  -0.1250000), wk =   0.0937500
        k(    8) = (  -0.2500000   0.5000000  -0.2500000), wk =   0.0937500
        k(    9) = (   0.6250000  -0.3750000   0.6250000), wk =   0.0937500
        k(   10) = (   0.5000000  -0.2500000   0.5000000), wk =   0.0937500
        k(   11) = (   0.3750000  -0.1250000   0.3750000), wk =   0.0937500
        k(   12) = (   0.2500000   0.0000000   0.2500000), wk =   0.0468750
        k(   13) = (   0.0000000   0.5000000   0.0000000), wk =   0.0234375
        k(   14) = (  -0.1250000   0.6250000  -0.1250000), wk =   0.0937500
        k(   15) = (   0.7500000  -0.2500000   0.7500000), wk =   0.0937500
        k(   16) = (   0.6250000  -0.1250000   0.6250000), wk =   0.0937500
        k(   17) = (   0.5000000   0.0000000   0.5000000), wk =   0.0468750
        k(   18) = (   0.0000000   0.7500000   0.0000000), wk =   0.0234375
        k(   19) = (   0.8750000  -0.1250000   0.8750000), wk =   0.0937500
        k(   20) = (   0.7500000   0.0000000   0.7500000), wk =   0.0468750
        k(   21) = (   0.0000000  -1.0000000   0.0000000), wk =   0.0117188
        k(   22) = (  -0.2500000   0.5000000   0.0000000), wk =   0.0937500
        k(   23) = (   0.6250000  -0.3750000   0.8750000), wk =   0.1875000
        k(   24) = (   0.5000000  -0.2500000   0.7500000), wk =   0.0937500
        k(   25) = (   0.7500000  -0.2500000   1.0000000), wk =   0.0937500
        k(   26) = (   0.6250000  -0.1250000   0.8750000), wk =   0.1875000
        k(   27) = (   0.5000000   0.0000000   0.7500000), wk =   0.0937500
        k(   28) = (  -0.2500000  -1.0000000   0.0000000), wk =   0.0468750
        k(   29) = (  -0.5000000  -1.0000000   0.0000000), wk =   0.0234375

     Dense  grid:    32647 G-vectors     FFT dimensions: (  45,  45,  45)

     Estimated max dynamical RAM per process >      29.08 MB

     Estimated total dynamical RAM >     514.52 MB

     Initial potential from superposition of free atoms

     starting charge       9.9998, renormalised to      10.0000


     %%%%%%%%%%%%%%%%%%%%%%%%%%%%%%%%%%%%%%%%%%%%%%%%%%%%%%%%%%%%%%%%%%%%%%%%
     %                                                                      %
     % You are using vdW-DF, which was implemented by the Thonhauser group. %
     % Please cite the following two papers that made this development      %
     % possible and the two reviews that describe the various versions:     %
     %                                                                      %
     %   T. Thonhauser et al., PRL 115, 136402 (2015).                      %
     %   T. Thonhauser et al., PRB 76, 125112 (2007).                       %
     %   K. Berland et al., Rep. Prog. Phys. 78, 066501 (2015).             %
     %   D.C. Langreth et al., J. Phys.: Condens. Matter 21, 084203 (2009). %
     %                                                                      %
     % If you are calculating stress with vdW-DF, please also cite:         %
     %                                                                      %
     %   R. Sabatini et al., J. Phys.: Condens. Matter 24, 424209 (2012).   %
     %                                                                      %
     %%%%%%%%%%%%%%%%%%%%%%%%%%%%%%%%%%%%%%%%%%%%%%%%%%%%%%%%%%%%%%%%%%%%%%%%

     %%%%%%%%%%%%%%%%%%%%%%%%%%%%%%%%%%%%%%%%%%%%%%%%%%%%%%%%%%%%%%%%%%%%%%%%
     %                                                                      %
     %  vdW-DF NEWS:                                                        %
     %                                                                      %
     %  * vdW-DF3 is now available. DOI: 10.1021/acs.jctc.0c00471           %
     %    use with input_dft = 'vdW-DF3-opt1' or 'vdW-DF3-opt2'             %
     %                                                                      %
     %  * Unscreened and range-separated vdW-DF hybrid functionals          %
     %    DOI: 10.1063/1.4986522 and 10.1088/1361-648X/ac2ad2               %
     %    use with input_dft = 'vdW-DF-cx0' (etc) and 'vdW-DF-ahcx'         %
     %                                                                      %
     %%%%%%%%%%%%%%%%%%%%%%%%%%%%%%%%%%%%%%%%%%%%%%%%%%%%%%%%%%%%%%%%%%%%%%%%


     Starting wfcs are    9 randomized atomic wfcs

     total cpu time spent up to now is       15.7 secs

     Self-consistent Calculation

     iteration #  1     ecut=   170.00 Ry     beta= 0.70
     CG style diagonalization
     ethr =  1.00E-02,  avg # of iterations =  3.6

     Threshold (ethr) on eigenvalues was too large:
     Diagonalizing with lowered threshold

     CG style diagonalization
     c_bands:  1 eigenvalues not converged
     ethr =  1.16E-04,  avg # of iterations =  5.8

     total cpu time spent up to now is       17.5 secs

     total energy              =     -66.16462276 Ry
     estimated scf accuracy    <       0.03182396 Ry

     iteration #  2     ecut=   170.00 Ry     beta= 0.70
     CG style diagonalization
     ethr =  3.18E-04,  avg # of iterations =  3.2

     total cpu time spent up to now is       18.4 secs

     total energy              =     -66.17057242 Ry
     estimated scf accuracy    <       0.00165352 Ry

     iteration #  3     ecut=   170.00 Ry     beta= 0.70
     CG style diagonalization
     ethr =  1.65E-05,  avg # of iterations =  4.7

     total cpu time spent up to now is       19.5 secs

     total energy              =     -66.17160042 Ry
     estimated scf accuracy    <       0.00013286 Ry

     iteration #  4     ecut=   170.00 Ry     beta= 0.70
     CG style diagonalization
     ethr =  1.33E-06,  avg # of iterations =  4.9

     total cpu time spent up to now is       20.7 secs

     total energy              =     -66.17167196 Ry
     estimated scf accuracy    <       0.00001278 Ry

     iteration #  5     ecut=   170.00 Ry     beta= 0.70
     CG style diagonalization
     ethr =  1.28E-07,  avg # of iterations =  4.9

     total cpu time spent up to now is       21.7 secs

     total energy              =     -66.17168976 Ry
     estimated scf accuracy    <       0.00000875 Ry

     iteration #  6     ecut=   170.00 Ry     beta= 0.70
     CG style diagonalization
     ethr =  8.75E-08,  avg # of iterations =  3.1

     total cpu time spent up to now is       22.6 secs

     total energy              =     -66.17169024 Ry
     estimated scf accuracy    <       0.00000115 Ry

     iteration #  7     ecut=   170.00 Ry     beta= 0.70
     CG style diagonalization
     ethr =  1.15E-08,  avg # of iterations =  3.8

     total cpu time spent up to now is       23.6 secs

     total energy              =     -66.17169074 Ry
     estimated scf accuracy    <          9.2E-09 Ry

     iteration #  8     ecut=   170.00 Ry     beta= 0.70
     CG style diagonalization
     ethr =  9.20E-11,  avg # of iterations =  6.2

     total cpu time spent up to now is       24.8 secs

     total energy              =     -66.17169082 Ry
     estimated scf accuracy    <       0.00000002 Ry

     iteration #  9     ecut=   170.00 Ry     beta= 0.70
     CG style diagonalization
     ethr =  9.20E-11,  avg # of iterations =  3.4

     total cpu time spent up to now is       25.7 secs

     End of self-consistent calculation

          k = 0.0000 0.0000 0.0000 (  4015 PWs)   bands (ev):

     6.5539  12.4425  12.4425  12.4425  14.3120  14.3120  31.6851  36.2004
    36.2005

          k =-0.1250 0.1250-0.1250 (  4059 PWs)   bands (ev):

     7.1247  12.2393  12.6402  12.6402  14.2317  14.2317  32.3627  33.4670
    36.9287

          k =-0.2500 0.2500-0.2500 (  4062 PWs)   bands (ev):

     8.4769  12.1794  12.7729  12.7729  14.4970  14.4970  29.0373  32.9677
    38.1006

          k =-0.3750 0.3750-0.3750 (  4083 PWs)   bands (ev):

     9.2345  12.5195  12.5195  13.7997  15.3404  15.3404  24.2711  31.6797
    36.2369

          k = 0.5000-0.5000 0.5000 (  4092 PWs)   bands (ev):

     9.2807  12.3775  12.3775  15.7985  15.7985  15.8387  21.2586  31.0767
    35.0847

          k = 0.0000 0.2500 0.0000 (  4063 PWs)   bands (ev):

     7.3190  11.9970  12.8313  12.8313  13.8315  14.5046  32.7287  34.4893
    35.6954

          k =-0.1250 0.3750-0.1250 (  4052 PWs)   bands (ev):

     8.4720  11.6454  12.8921  13.1517  13.9749  14.8042  30.9194  33.6425
    35.0360

          k =-0.2500 0.5000-0.2500 (  4062 PWs)   bands (ev):

     9.5618  12.1640  12.3877  13.0167  15.4976  15.5045  26.0226  32.5510
    34.1295

          k = 0.6250-0.3750 0.6250 (  4063 PWs)   bands (ev):

     9.7105  12.0684  12.7750  13.6494  15.8298  17.8124  21.6751  31.5508
    33.9640

          k = 0.5000-0.2500 0.5000 (  4066 PWs)   bands (ev):

     9.7393  12.1720  12.7666  13.4471  15.2194  17.2899  23.0215  31.4652
    33.2063

          k = 0.3750-0.1250 0.3750 (  4066 PWs)   bands (ev):

     9.3621  11.9555  12.6063  13.0345  14.1452  15.7750  27.6973  32.1507
    34.5812

          k = 0.2500 0.0000 0.2500 (  4067 PWs)   bands (ev):

     8.0050  11.9085  12.8404  12.9679  13.7949  14.7037  31.7089  32.8721
    35.6432

          k = 0.0000 0.5000 0.0000 (  4064 PWs)   bands (ev):

     9.1414  11.0496  13.1749  13.9273  13.9273  14.9922  32.7129  32.7129
    33.5416

          k =-0.1250 0.6250-0.1250 (  4069 PWs)   bands (ev):

     9.9532  10.8214  12.8985  14.1374  15.5802  15.6445  28.0489  31.2713
    31.7383

          k = 0.7500-0.2500 0.7500 (  4077 PWs)   bands (ev):

    10.2594  11.3032  12.7325  13.8564  15.9116  18.7667  23.1444  29.5453
    31.3154

          k = 0.6250-0.1250 0.6250 (  4069 PWs)   bands (ev):

    10.5902  11.6239  12.6018  13.6285  15.2723  19.6247  22.7531  27.8506
    33.3020

          k = 0.5000 0.0000 0.5000 (  4069 PWs)   bands (ev):

    10.6560  11.7210  12.0798  13.5250  14.2794  17.5510  26.4015  28.2965
    34.0592

          k = 0.0000 0.7500 0.0000 (  4076 PWs)   bands (ev):

     9.7367  10.2340  15.1459  15.3913  15.3913  15.5166  28.2658  29.0860
    29.0860

          k = 0.8750-0.1250 0.8750 (  4075 PWs)   bands (ev):

     9.8329  10.2598  14.5243  15.1823  16.0292  18.6751  24.5353  27.2634
    28.6430

          k = 0.7500 0.0000 0.7500 (  4089 PWs)   bands (ev):

    10.2515  10.9654  13.3364  14.6205  15.6373  21.5886  22.3660  25.4672
    30.3857

          k = 0.0000-1.0000 0.0000 (  4088 PWs)   bands (ev):

     9.5149   9.9254  15.7462  16.2049  16.2049  17.9850  24.1272  27.4536
    27.4536

          k =-0.2500 0.5000 0.0000 (  4059 PWs)   bands (ev):

     9.6766  11.2915  12.4429  13.9331  14.0003  15.8194  29.1822  31.0982
    33.9584

          k = 0.6250-0.3750 0.8750 (  4074 PWs)   bands (ev):

    10.4320  11.7453  12.0054  13.6639  15.1490  17.6436  24.8787  29.8950
    32.1183

          k = 0.5000-0.2500 0.7500 (  4072 PWs)   bands (ev):

    10.4483  11.5501  12.8099  13.4231  15.6149  20.1990  21.0916  30.1975
    30.9053

          k = 0.7500-0.2500 1.0000 (  4069 PWs)   bands (ev):

    10.3120  10.6514  12.9323  14.9724  15.3816  17.8485  26.1765  28.0319
    29.7151

          k = 0.6250-0.1250 0.8750 (  4080 PWs)   bands (ev):

    10.6135  11.1368  12.5622  14.3367  15.8445  20.9879  22.8281  26.7096
    28.9647

          k = 0.5000 0.0000 0.7500 (  4078 PWs)   bands (ev):

    11.1465  11.4513  11.8257  14.0783  15.3905  19.8331  25.0459  25.4097
    30.5520

          k =-0.2500-1.0000 0.0000 (  4078 PWs)   bands (ev):

    10.0411  10.3995  14.0021  15.0276  16.2063  20.6339  23.2996  26.5292
    27.4563

          k =-0.5000-1.0000 0.0000 (  4056 PWs)   bands (ev):

    10.7955  11.7937  11.7937  14.0492  16.2077  22.7376  23.9730  23.9730
    27.4046

     the Fermi energy is    15.7521 ev

!    total energy              =     -66.17169083 Ry
     estimated scf accuracy    <          2.1E-11 Ry
     smearing contrib. (-TS)   =      -0.00562345 Ry
     internal energy E=F+TS    =     -66.16606738 Ry

     The total energy is F=E-TS. E is the sum of the following terms:
     one-electron contribution =      14.38821316 Ry
     hartree contribution      =       4.69275133 Ry
     xc contribution           =     -24.73677618 Ry
     ewald contribution        =     -60.51025570 Ry

     convergence has been achieved in   9 iterations

     Writing all to output data dir ./Ptbulk.save/
 
     init_run     :     15.12s CPU     15.26s WALL (       1 calls)
     electrons    :      9.78s CPU     10.20s WALL (       1 calls)

     Called by init_run:
     wfcinit      :      0.10s CPU      0.10s WALL (       1 calls)
     potinit      :     13.76s CPU     13.78s WALL (       1 calls)
     hinit0       :      1.23s CPU      1.34s WALL (       1 calls)

     Called by electrons:
     c_bands      :      4.75s CPU      4.77s WALL (      10 calls)
     sum_band     :      0.72s CPU      0.72s WALL (      10 calls)
     v_of_rho     :     16.47s CPU     16.71s WALL (      10 calls)
     newd         :      0.16s CPU      0.19s WALL (      10 calls)
     mix_rho      :      0.08s CPU      0.08s WALL (      10 calls)
     vdW_kernel   :     12.00s CPU     12.00s WALL (       1 calls)

     Called by c_bands:
     init_us_2    :      0.10s CPU      0.08s WALL (      42 calls)
     init_us_2:cp :      0.10s CPU      0.08s WALL (      42 calls)
     ccgdiagg     :      3.33s CPU      3.35s WALL (      20 calls)
     wfcrot       :      0.78s CPU      0.79s WALL (      18 calls)

     Called by *cgdiagg:
     h_psi        :      3.64s CPU      3.69s WALL (     664 calls)
     s_psi        :      0.14s CPU      0.15s WALL (    1310 calls)

     Called by h_psi:
     h_psi:calbec :      0.15s CPU      0.12s WALL (     664 calls)
     vloc_psi     :      3.40s CPU      3.46s WALL (     664 calls)
     add_vuspsi   :      0.07s CPU      0.09s WALL (     664 calls)
     hs_1psi      :      2.98s CPU      3.03s WALL (     646 calls)
     s_1psi       :      0.16s CPU      0.15s WALL (     646 calls)

     General routines
     calbec       :      0.26s CPU      0.21s WALL (    1330 calls)
     fft          :      1.21s CPU      1.21s WALL (     611 calls)
     ffts         :      0.01s CPU      0.02s WALL (      10 calls)
     fftw         :      3.32s CPU      3.38s WALL (    1796 calls)
 
     Parallel routines
 
     PWSCF        :     25.11s CPU     27.38s WALL

 
   This run was terminated on:   9:47:34  10Oct2022            

=------------------------------------------------------------------------------=
   JOB DONE.
=------------------------------------------------------------------------------=
