
     Program PWSCF v.7.1 starts on  7Oct2022 at 10:19:54 

     This program is part of the open-source Quantum ESPRESSO suite
     for quantum simulation of materials; please cite
         "P. Giannozzi et al., J. Phys.:Condens. Matter 21 395502 (2009);
         "P. Giannozzi et al., J. Phys.:Condens. Matter 29 465901 (2017);
         "P. Giannozzi et al., J. Chem. Phys. 152 154105 (2020);
          URL http://www.quantum-espresso.org", 
     in publications or presentations arising from this work. More details at
     http://www.quantum-espresso.org/quote

     Parallel version (MPI), running on    24 processors

     MPI processes distributed on     3 nodes
     93588 MiB available memory on the printing compute node when the environment starts
 
     Waiting for input...
     Reading input from standard input

     Current dimensions of program PWSCF are:
     Max number of different atomic species (ntypx) = 10
     Max number of k-points (npk) =  40000
     Max angular momentum in pseudopotentials (lmaxx) =  4
     file Pt.pbe-n-rrkjus_psl.1.0.0.UPF: wavefunction(s)  6S renormalized

     **************************************************************************
     Initializing libbeef V0.1.2 with the BEEF-vdW functional.
     Citation: Wellendorff et al., PRB 85, 235149 (2012).
     **************************************************************************


     IMPORTANT: XC functional enforced from input :
     Exchange-correlation= BEEF-VDW
                           (   1   4  43  14   2   0   0)
     Any further DFT definition will be discarded
     Please, verify this is what you really want

 
     K-points division:     npool     =      24
     Subspace diagonalization in iterative solution of the eigenvalue problem:
     a serial algorithm will be used

 
     G-vector sticks info
     --------------------
     sticks:   dense  smooth     PW     G-vecs:    dense   smooth      PW
     Sum        1285    1285    379                30731    30731    4909
 
     Using Slab Decomposition
 


     bravais-lattice index     =            2
     lattice parameter (alat)  =       7.4200  a.u.
     unit-cell volume          =     102.1296 (a.u.)^3
     number of atoms/cell      =            1
     number of atomic types    =            1
     number of electrons       =        10.00
     number of Kohn-Sham states=            9
     kinetic-energy cutoff     =     170.0000  Ry
     charge density cutoff     =     680.0000  Ry
     scf convergence threshold =      1.0E-09
     mixing beta               =       0.7000
     number of iterations used =            8  plain     mixing
     Exchange-correlation= BEEF-VDW
                           (   1   4  43  14   2   0   0)

     celldm(1)=   7.420000  celldm(2)=   0.000000  celldm(3)=   0.000000
     celldm(4)=   0.000000  celldm(5)=   0.000000  celldm(6)=   0.000000

     crystal axes: (cart. coord. in units of alat)
               a(1) = (  -0.500000   0.000000   0.500000 )  
               a(2) = (   0.000000   0.500000   0.500000 )  
               a(3) = (  -0.500000   0.500000   0.000000 )  

     reciprocal axes: (cart. coord. in units 2 pi/alat)
               b(1) = ( -1.000000 -1.000000  1.000000 )  
               b(2) = (  1.000000  1.000000  1.000000 )  
               b(3) = ( -1.000000  1.000000 -1.000000 )  


     PseudoPot. # 1 for Pt read from file:
     ./pseudo/Pt.pbe-n-rrkjus_psl.1.0.0.UPF
     MD5 check sum: 6bc887cfe28d63a5fc1f72d35a7d3ef7
     Pseudo is Ultrasoft + core correction, Zval = 10.0
     Generated using &quot;atomic&quot; code by A. Dal Corso  v.6.3
     Using radial grid of 1277 points,  6 beta functions with: 
                l(1) =   0
                l(2) =   0
                l(3) =   1
                l(4) =   1
                l(5) =   2
                l(6) =   2
     Q(r) pseudized with 0 coefficients 


     atomic species   valence    mass     pseudopotential
        Pt            10.00   195.07800     Pt( 1.00)

     48 Sym. Ops., with inversion, found



   Cartesian axes

     site n.     atom                  positions (alat units)
         1           Pt  tau(   1) = (   0.0000000   0.0000000   0.0000000  )

     number of k points=    29  Gaussian smearing, width (Ry)=  0.0200
                       cart. coord. in units 2pi/alat
        k(    1) = (   0.0000000   0.0000000   0.0000000), wk =   0.0039062
        k(    2) = (  -0.1250000   0.1250000  -0.1250000), wk =   0.0312500
        k(    3) = (  -0.2500000   0.2500000  -0.2500000), wk =   0.0312500
        k(    4) = (  -0.3750000   0.3750000  -0.3750000), wk =   0.0312500
        k(    5) = (   0.5000000  -0.5000000   0.5000000), wk =   0.0156250
        k(    6) = (   0.0000000   0.2500000   0.0000000), wk =   0.0234375
        k(    7) = (  -0.1250000   0.3750000  -0.1250000), wk =   0.0937500
        k(    8) = (  -0.2500000   0.5000000  -0.2500000), wk =   0.0937500
        k(    9) = (   0.6250000  -0.3750000   0.6250000), wk =   0.0937500
        k(   10) = (   0.5000000  -0.2500000   0.5000000), wk =   0.0937500
        k(   11) = (   0.3750000  -0.1250000   0.3750000), wk =   0.0937500
        k(   12) = (   0.2500000   0.0000000   0.2500000), wk =   0.0468750
        k(   13) = (   0.0000000   0.5000000   0.0000000), wk =   0.0234375
        k(   14) = (  -0.1250000   0.6250000  -0.1250000), wk =   0.0937500
        k(   15) = (   0.7500000  -0.2500000   0.7500000), wk =   0.0937500
        k(   16) = (   0.6250000  -0.1250000   0.6250000), wk =   0.0937500
        k(   17) = (   0.5000000   0.0000000   0.5000000), wk =   0.0468750
        k(   18) = (   0.0000000   0.7500000   0.0000000), wk =   0.0234375
        k(   19) = (   0.8750000  -0.1250000   0.8750000), wk =   0.0937500
        k(   20) = (   0.7500000   0.0000000   0.7500000), wk =   0.0468750
        k(   21) = (   0.0000000  -1.0000000   0.0000000), wk =   0.0117188
        k(   22) = (  -0.2500000   0.5000000   0.0000000), wk =   0.0937500
        k(   23) = (   0.6250000  -0.3750000   0.8750000), wk =   0.1875000
        k(   24) = (   0.5000000  -0.2500000   0.7500000), wk =   0.0937500
        k(   25) = (   0.7500000  -0.2500000   1.0000000), wk =   0.0937500
        k(   26) = (   0.6250000  -0.1250000   0.8750000), wk =   0.1875000
        k(   27) = (   0.5000000   0.0000000   0.7500000), wk =   0.0937500
        k(   28) = (  -0.2500000  -1.0000000   0.0000000), wk =   0.0468750
        k(   29) = (  -0.5000000  -1.0000000   0.0000000), wk =   0.0234375

     Dense  grid:    30731 G-vectors     FFT dimensions: (  45,  45,  45)

     Estimated max dynamical RAM per process >      27.85 MB

     Estimated total dynamical RAM >     495.92 MB

     Initial potential from superposition of free atoms

     starting charge       9.9998, renormalised to      10.0000


     %%%%%%%%%%%%%%%%%%%%%%%%%%%%%%%%%%%%%%%%%%%%%%%%%%%%%%%%%%%%%%%%%%%%%%%%
     %                                                                      %
     % You are using vdW-DF, which was implemented by the Thonhauser group. %
     % Please cite the following two papers that made this development      %
     % possible and the two reviews that describe the various versions:     %
     %                                                                      %
     %   T. Thonhauser et al., PRL 115, 136402 (2015).                      %
     %   T. Thonhauser et al., PRB 76, 125112 (2007).                       %
     %   K. Berland et al., Rep. Prog. Phys. 78, 066501 (2015).             %
     %   D.C. Langreth et al., J. Phys.: Condens. Matter 21, 084203 (2009). %
     %                                                                      %
     % If you are calculating stress with vdW-DF, please also cite:         %
     %                                                                      %
     %   R. Sabatini et al., J. Phys.: Condens. Matter 24, 424209 (2012).   %
     %                                                                      %
     %%%%%%%%%%%%%%%%%%%%%%%%%%%%%%%%%%%%%%%%%%%%%%%%%%%%%%%%%%%%%%%%%%%%%%%%

     %%%%%%%%%%%%%%%%%%%%%%%%%%%%%%%%%%%%%%%%%%%%%%%%%%%%%%%%%%%%%%%%%%%%%%%%
     %                                                                      %
     %  vdW-DF NEWS:                                                        %
     %                                                                      %
     %  * vdW-DF3 is now available. DOI: 10.1021/acs.jctc.0c00471           %
     %    use with input_dft = 'vdW-DF3-opt1' or 'vdW-DF3-opt2'             %
     %                                                                      %
     %  * Unscreened and range-separated vdW-DF hybrid functionals          %
     %    DOI: 10.1063/1.4986522 and 10.1088/1361-648X/ac2ad2               %
     %    use with input_dft = 'vdW-DF-cx0' (etc) and 'vdW-DF-ahcx'         %
     %                                                                      %
     %%%%%%%%%%%%%%%%%%%%%%%%%%%%%%%%%%%%%%%%%%%%%%%%%%%%%%%%%%%%%%%%%%%%%%%%


     Starting wfcs are    9 randomized atomic wfcs

     total cpu time spent up to now is       14.8 secs

     Self-consistent Calculation

     iteration #  1     ecut=   170.00 Ry     beta= 0.70
     CG style diagonalization
     ethr =  1.00E-02,  avg # of iterations =  3.8

     Threshold (ethr) on eigenvalues was too large:
     Diagonalizing with lowered threshold

     CG style diagonalization
     ethr =  9.74E-05,  avg # of iterations =  6.1

     total cpu time spent up to now is       16.6 secs

     total energy              =     -66.16241912 Ry
     estimated scf accuracy    <       0.03095487 Ry

     iteration #  2     ecut=   170.00 Ry     beta= 0.70
     CG style diagonalization
     ethr =  3.10E-04,  avg # of iterations =  3.1

     total cpu time spent up to now is       17.5 secs

     total energy              =     -66.16746815 Ry
     estimated scf accuracy    <       0.00091236 Ry

     iteration #  3     ecut=   170.00 Ry     beta= 0.70
     CG style diagonalization
     ethr =  9.12E-06,  avg # of iterations =  5.6

     total cpu time spent up to now is       18.6 secs

     total energy              =     -66.16839496 Ry
     estimated scf accuracy    <       0.00020097 Ry

     iteration #  4     ecut=   170.00 Ry     beta= 0.70
     CG style diagonalization
     ethr =  2.01E-06,  avg # of iterations =  4.2

     total cpu time spent up to now is       19.7 secs

     total energy              =     -66.16840382 Ry
     estimated scf accuracy    <       0.00014524 Ry

     iteration #  5     ecut=   170.00 Ry     beta= 0.70
     CG style diagonalization
     ethr =  1.45E-06,  avg # of iterations =  3.4

     total cpu time spent up to now is       20.6 secs

     total energy              =     -66.16844390 Ry
     estimated scf accuracy    <       0.00000136 Ry

     iteration #  6     ecut=   170.00 Ry     beta= 0.70
     CG style diagonalization
     ethr =  1.36E-08,  avg # of iterations =  5.4

     total cpu time spent up to now is       21.7 secs

     total energy              =     -66.16844971 Ry
     estimated scf accuracy    <       0.00000098 Ry

     iteration #  7     ecut=   170.00 Ry     beta= 0.70
     CG style diagonalization
     ethr =  9.80E-09,  avg # of iterations =  3.1

     total cpu time spent up to now is       22.6 secs

     total energy              =     -66.16844855 Ry
     estimated scf accuracy    <       0.00000230 Ry

     iteration #  8     ecut=   170.00 Ry     beta= 0.70
     CG style diagonalization
     ethr =  9.80E-09,  avg # of iterations =  3.2

     total cpu time spent up to now is       23.4 secs

     total energy              =     -66.16844887 Ry
     estimated scf accuracy    <       0.00000008 Ry

     iteration #  9     ecut=   170.00 Ry     beta= 0.70
     CG style diagonalization
     ethr =  7.80E-10,  avg # of iterations =  4.3

     total cpu time spent up to now is       24.5 secs

     total energy              =     -66.16844892 Ry
     estimated scf accuracy    <       0.00000002 Ry

     iteration # 10     ecut=   170.00 Ry     beta= 0.70
     CG style diagonalization
     ethr =  1.60E-10,  avg # of iterations =  3.5

     total cpu time spent up to now is       25.4 secs

     total energy              =     -66.16844891 Ry
     estimated scf accuracy    <       0.00000001 Ry

     iteration # 11     ecut=   170.00 Ry     beta= 0.70
     CG style diagonalization
     ethr =  1.12E-10,  avg # of iterations =  3.7

     total cpu time spent up to now is       26.3 secs

     total energy              =     -66.16844892 Ry
     estimated scf accuracy    <          2.0E-09 Ry

     iteration # 12     ecut=   170.00 Ry     beta= 0.70
     CG style diagonalization
     ethr =  1.96E-11,  avg # of iterations =  4.0

     total cpu time spent up to now is       27.3 secs

     total energy              =     -66.16844892 Ry
     estimated scf accuracy    <          2.2E-09 Ry

     iteration # 13     ecut=   170.00 Ry     beta= 0.70
     CG style diagonalization
     ethr =  1.96E-11,  avg # of iterations =  3.0

     total cpu time spent up to now is       28.2 secs

     total energy              =     -66.16844892 Ry
     estimated scf accuracy    <          3.1E-09 Ry

     iteration # 14     ecut=   170.00 Ry     beta= 0.70
     CG style diagonalization
     ethr =  1.96E-11,  avg # of iterations =  3.0

     total cpu time spent up to now is       29.0 secs

     total energy              =     -66.16844892 Ry
     estimated scf accuracy    <          1.0E-09 Ry

     iteration # 15     ecut=   170.00 Ry     beta= 0.70
     CG style diagonalization
     ethr =  1.01E-11,  avg # of iterations =  3.0

     total cpu time spent up to now is       29.9 secs

     End of self-consistent calculation

          k = 0.0000 0.0000 0.0000 (  3839 PWs)   bands (ev):

     7.3965  13.6005  13.6005  13.6005  15.6811  15.6811  33.1610  38.0573
    38.0573

          k =-0.1250 0.1250-0.1250 (  3786 PWs)   bands (ev):

     8.0020  13.3714  13.8179  13.8179  15.5876  15.5876  33.9696  35.2721
    38.8936

          k =-0.2500 0.2500-0.2500 (  3807 PWs)   bands (ev):

     9.4123  13.3030  13.9628  13.9628  15.8764  15.8764  31.0152  34.6526
    40.4505

          k =-0.3750 0.3750-0.3750 (  3825 PWs)   bands (ev):

    10.1483  13.6807  13.6807  15.0371  16.8184  16.8184  26.2713  33.2244
    38.4602

          k = 0.5000-0.5000 0.5000 (  3828 PWs)   bands (ev):

    10.1753  13.5234  13.5234  17.1145  17.3348  17.3348  23.2525  32.5559
    37.1773

          k = 0.0000 0.2500 0.0000 (  3811 PWs)   bands (ev):

     8.2083  13.1022  14.0288  14.0288  15.1371  15.8945  34.3413  36.2940
    37.7241

          k =-0.1250 0.3750-0.1250 (  3810 PWs)   bands (ev):

     9.4198  12.7118  14.0895  14.3819  15.2914  16.2244  32.9052  35.4201
    37.2460

          k =-0.2500 0.5000-0.2500 (  3817 PWs)   bands (ev):

    10.5157  13.2825  13.5327  14.2306  16.9594  17.0051  28.0325  34.2450
    36.3327

          k = 0.6250-0.3750 0.6250 (  3812 PWs)   bands (ev):

    10.6387  13.1729  13.9615  14.8937  17.3700  19.3837  23.6219  33.2045
    36.0882

          k = 0.5000-0.2500 0.5000 (  3821 PWs)   bands (ev):

    10.6776  13.2892  13.9516  14.6698  16.6809  18.8999  24.9850  33.2419
    35.1883

          k = 0.3750-0.1250 0.3750 (  3813 PWs)   bands (ev):

    10.3338  13.0588  13.7688  14.2490  15.4808  17.2945  29.7167  34.1318
    36.5685

          k = 0.2500 0.0000 0.2500 (  3789 PWs)   bands (ev):

     8.9318  13.0026  14.0362  14.1783  15.0950  16.1108  33.5887  34.7491
    37.5994

          k = 0.0000 0.5000 0.0000 (  3831 PWs)   bands (ev):

    10.1079  12.0531  14.4007  15.2391  15.2391  16.4365  34.8494  34.8494
    35.4046

          k =-0.1250 0.6250-0.1250 (  3827 PWs)   bands (ev):

    10.9145  11.8060  14.0991  15.4721  17.0916  17.1172  30.0776  33.3362
    33.8455

          k = 0.7500-0.2500 0.7500 (  3830 PWs)   bands (ev):

    11.2090  12.3290  13.9149  15.1578  17.4619  20.4613  25.0003  31.6526
    33.3701

          k = 0.6250-0.1250 0.6250 (  3832 PWs)   bands (ev):

    11.5756  12.6794  13.7622  14.9031  16.7395  21.3540  24.6735  29.9144
    35.5000

          k = 0.5000 0.0000 0.5000 (  3803 PWs)   bands (ev):

    11.6911  12.7978  13.1779  14.7878  15.6302  19.2242  28.3802  30.4350
    35.8699

          k = 0.0000 0.7500 0.0000 (  3840 PWs)   bands (ev):

    10.6404  11.1589  16.4997  16.8694  16.8694  17.0226  30.5147  31.0045
    31.0045

          k = 0.8750-0.1250 0.8750 (  3844 PWs)   bands (ev):

    10.7258  11.1903  15.8706  16.6394  17.5931  20.3120  26.4971  29.2769
    30.5248

          k = 0.7500 0.0000 0.7500 (  3811 PWs)   bands (ev):

    11.1795  11.9649  14.5695  16.0070  17.1493  23.3846  24.1904  27.5206
    32.4091

          k = 0.0000-1.0000 0.0000 (  3860 PWs)   bands (ev):

    10.3771  10.8222  17.2804  17.7895  17.7895  19.3988  26.3160  29.2314
    29.2314

          k =-0.2500 0.5000 0.0000 (  3818 PWs)   bands (ev):

    10.6756  12.3217  13.5875  15.2453  15.3170  17.3445  31.2013  33.2776
    35.9338

          k = 0.6250-0.3750 0.8750 (  3827 PWs)   bands (ev):

    11.4246  12.8114  13.1177  14.9425  16.5968  19.3035  26.8367  31.9973
    34.0902

          k = 0.5000-0.2500 0.7500 (  3824 PWs)   bands (ev):

    11.4304  12.5941  13.9870  14.6759  17.1244  21.8828  23.0091  32.3465
    32.8604

          k = 0.7500-0.2500 1.0000 (  3835 PWs)   bands (ev):

    11.2609  11.6204  14.1342  16.3951  16.8590  19.5034  28.1485  30.0111
    31.8113

          k = 0.6250-0.1250 0.8750 (  3819 PWs)   bands (ev):

    11.5752  12.1534  13.7242  15.6868  17.3813  22.8219  24.6443  28.7566
    30.9925

          k = 0.5000 0.0000 0.7500 (  3823 PWs)   bands (ev):

    12.1546  12.5122  12.9139  15.3990  16.8702  21.5961  27.0266  27.3796
    32.6456

          k =-0.2500-1.0000 0.0000 (  3832 PWs)   bands (ev):

    10.9471  11.3455  15.2994  16.4626  17.7911  22.3237  25.3299  28.3671
    29.4297

          k =-0.5000-1.0000 0.0000 (  3828 PWs)   bands (ev):

    11.7645  12.8789  12.8789  15.3652  17.7928  24.7182  25.8177  25.8177
    29.4474

     the Fermi energy is    17.2673 ev

!    total energy              =     -66.16844892 Ry
     estimated scf accuracy    <          7.4E-10 Ry
     smearing contrib. (-TS)   =      -0.00507987 Ry
     internal energy E=F+TS    =     -66.16336905 Ry

     The total energy is F=E-TS. E is the sum of the following terms:
     one-electron contribution =      16.12246461 Ry
     hartree contribution      =       4.30138235 Ry
     xc contribution           =     -24.79662201 Ry
     ewald contribution        =     -61.79059399 Ry

     convergence has been achieved in  15 iterations

     Writing all to output data dir ./Ptbulk.save/
 
     init_run     :     14.29s CPU     14.34s WALL (       1 calls)
     electrons    :     14.59s CPU     15.10s WALL (       1 calls)

     Called by init_run:
     wfcinit      :      0.10s CPU      0.10s WALL (       1 calls)
     potinit      :     13.00s CPU     13.03s WALL (       1 calls)
     hinit0       :      1.16s CPU      1.17s WALL (       1 calls)

     Called by electrons:
     c_bands      :      6.57s CPU      6.58s WALL (      16 calls)
     sum_band     :      1.13s CPU      1.15s WALL (      16 calls)
     v_of_rho     :     18.21s CPU     18.66s WALL (      16 calls)
     newd         :      0.24s CPU      0.25s WALL (      16 calls)
     mix_rho      :      0.16s CPU      0.17s WALL (      16 calls)
     vdW_kernel   :     11.33s CPU     11.33s WALL (       1 calls)

     Called by c_bands:
     init_us_2    :      0.13s CPU      0.11s WALL (      66 calls)
     init_us_2:cp :      0.13s CPU      0.11s WALL (      66 calls)
     ccgdiagg     :      4.69s CPU      4.70s WALL (      32 calls)
     wfcrot       :      1.31s CPU      1.32s WALL (      30 calls)

     Called by *cgdiagg:
     h_psi        :      5.35s CPU      5.38s WALL (     927 calls)
     s_psi        :      0.23s CPU      0.20s WALL (    1824 calls)

     Called by h_psi:
     h_psi:calbec :      0.23s CPU      0.18s WALL (     927 calls)
     vloc_psi     :      5.00s CPU      5.03s WALL (     927 calls)
     add_vuspsi   :      0.10s CPU      0.12s WALL (     927 calls)
     hs_1psi      :      4.27s CPU      4.27s WALL (     897 calls)
     s_1psi       :      0.26s CPU      0.21s WALL (     897 calls)

     General routines
     calbec       :      0.33s CPU      0.30s WALL (    1856 calls)
     fft          :      1.81s CPU      1.87s WALL (     977 calls)
     ffts         :      0.02s CPU      0.03s WALL (      16 calls)
     fftw         :      4.84s CPU      4.81s WALL (    2622 calls)
 
     Parallel routines
 
     PWSCF        :     29.09s CPU     31.07s WALL

 
   This run was terminated on:  10:20:25   7Oct2022            

=------------------------------------------------------------------------------=
   JOB DONE.
=------------------------------------------------------------------------------=
