
     Program PWSCF v.7.1 starts on  7Oct2022 at 10:48:13 

     This program is part of the open-source Quantum ESPRESSO suite
     for quantum simulation of materials; please cite
         "P. Giannozzi et al., J. Phys.:Condens. Matter 21 395502 (2009);
         "P. Giannozzi et al., J. Phys.:Condens. Matter 29 465901 (2017);
         "P. Giannozzi et al., J. Chem. Phys. 152 154105 (2020);
          URL http://www.quantum-espresso.org", 
     in publications or presentations arising from this work. More details at
     http://www.quantum-espresso.org/quote

     Parallel version (MPI), running on    24 processors

     MPI processes distributed on     3 nodes
     49122 MiB available memory on the printing compute node when the environment starts
 
     Waiting for input...
     Reading input from standard input

     Current dimensions of program PWSCF are:
     Max number of different atomic species (ntypx) = 10
     Max number of k-points (npk) =  40000
     Max angular momentum in pseudopotentials (lmaxx) =  4
     file Pt.pbe-n-rrkjus_psl.1.0.0.UPF: wavefunction(s)  6S renormalized

     **************************************************************************
     Initializing libbeef V0.1.2 with the BEEF-vdW functional.
     Citation: Wellendorff et al., PRB 85, 235149 (2012).
     **************************************************************************


     IMPORTANT: XC functional enforced from input :
     Exchange-correlation= BEEF-VDW
                           (   1   4  43  14   2   0   0)
     Any further DFT definition will be discarded
     Please, verify this is what you really want

 
     K-points division:     npool     =      24
     Subspace diagonalization in iterative solution of the eigenvalue problem:
     a serial algorithm will be used

 
     G-vector sticks info
     --------------------
     sticks:   dense  smooth     PW     G-vecs:    dense   smooth      PW
     Sum        1303    1303    379                31283    31283    4957
 
     Using Slab Decomposition
 


     bravais-lattice index     =            2
     lattice parameter (alat)  =       7.4900  a.u.
     unit-cell volume          =     105.0474 (a.u.)^3
     number of atoms/cell      =            1
     number of atomic types    =            1
     number of electrons       =        10.00
     number of Kohn-Sham states=            9
     kinetic-energy cutoff     =     170.0000  Ry
     charge density cutoff     =     680.0000  Ry
     scf convergence threshold =      1.0E-09
     mixing beta               =       0.7000
     number of iterations used =            8  plain     mixing
     Exchange-correlation= BEEF-VDW
                           (   1   4  43  14   2   0   0)

     celldm(1)=   7.490000  celldm(2)=   0.000000  celldm(3)=   0.000000
     celldm(4)=   0.000000  celldm(5)=   0.000000  celldm(6)=   0.000000

     crystal axes: (cart. coord. in units of alat)
               a(1) = (  -0.500000   0.000000   0.500000 )  
               a(2) = (   0.000000   0.500000   0.500000 )  
               a(3) = (  -0.500000   0.500000   0.000000 )  

     reciprocal axes: (cart. coord. in units 2 pi/alat)
               b(1) = ( -1.000000 -1.000000  1.000000 )  
               b(2) = (  1.000000  1.000000  1.000000 )  
               b(3) = ( -1.000000  1.000000 -1.000000 )  


     PseudoPot. # 1 for Pt read from file:
     ./pseudo/Pt.pbe-n-rrkjus_psl.1.0.0.UPF
     MD5 check sum: 6bc887cfe28d63a5fc1f72d35a7d3ef7
     Pseudo is Ultrasoft + core correction, Zval = 10.0
     Generated using &quot;atomic&quot; code by A. Dal Corso  v.6.3
     Using radial grid of 1277 points,  6 beta functions with: 
                l(1) =   0
                l(2) =   0
                l(3) =   1
                l(4) =   1
                l(5) =   2
                l(6) =   2
     Q(r) pseudized with 0 coefficients 


     atomic species   valence    mass     pseudopotential
        Pt            10.00   195.07800     Pt( 1.00)

     48 Sym. Ops., with inversion, found



   Cartesian axes

     site n.     atom                  positions (alat units)
         1           Pt  tau(   1) = (   0.0000000   0.0000000   0.0000000  )

     number of k points=    29  Gaussian smearing, width (Ry)=  0.0200
                       cart. coord. in units 2pi/alat
        k(    1) = (   0.0000000   0.0000000   0.0000000), wk =   0.0039062
        k(    2) = (  -0.1250000   0.1250000  -0.1250000), wk =   0.0312500
        k(    3) = (  -0.2500000   0.2500000  -0.2500000), wk =   0.0312500
        k(    4) = (  -0.3750000   0.3750000  -0.3750000), wk =   0.0312500
        k(    5) = (   0.5000000  -0.5000000   0.5000000), wk =   0.0156250
        k(    6) = (   0.0000000   0.2500000   0.0000000), wk =   0.0234375
        k(    7) = (  -0.1250000   0.3750000  -0.1250000), wk =   0.0937500
        k(    8) = (  -0.2500000   0.5000000  -0.2500000), wk =   0.0937500
        k(    9) = (   0.6250000  -0.3750000   0.6250000), wk =   0.0937500
        k(   10) = (   0.5000000  -0.2500000   0.5000000), wk =   0.0937500
        k(   11) = (   0.3750000  -0.1250000   0.3750000), wk =   0.0937500
        k(   12) = (   0.2500000   0.0000000   0.2500000), wk =   0.0468750
        k(   13) = (   0.0000000   0.5000000   0.0000000), wk =   0.0234375
        k(   14) = (  -0.1250000   0.6250000  -0.1250000), wk =   0.0937500
        k(   15) = (   0.7500000  -0.2500000   0.7500000), wk =   0.0937500
        k(   16) = (   0.6250000  -0.1250000   0.6250000), wk =   0.0937500
        k(   17) = (   0.5000000   0.0000000   0.5000000), wk =   0.0468750
        k(   18) = (   0.0000000   0.7500000   0.0000000), wk =   0.0234375
        k(   19) = (   0.8750000  -0.1250000   0.8750000), wk =   0.0937500
        k(   20) = (   0.7500000   0.0000000   0.7500000), wk =   0.0468750
        k(   21) = (   0.0000000  -1.0000000   0.0000000), wk =   0.0117188
        k(   22) = (  -0.2500000   0.5000000   0.0000000), wk =   0.0937500
        k(   23) = (   0.6250000  -0.3750000   0.8750000), wk =   0.1875000
        k(   24) = (   0.5000000  -0.2500000   0.7500000), wk =   0.0937500
        k(   25) = (   0.7500000  -0.2500000   1.0000000), wk =   0.0937500
        k(   26) = (   0.6250000  -0.1250000   0.8750000), wk =   0.1875000
        k(   27) = (   0.5000000   0.0000000   0.7500000), wk =   0.0937500
        k(   28) = (  -0.2500000  -1.0000000   0.0000000), wk =   0.0468750
        k(   29) = (  -0.5000000  -1.0000000   0.0000000), wk =   0.0234375

     Dense  grid:    31283 G-vectors     FFT dimensions: (  45,  45,  45)

     Estimated max dynamical RAM per process >      28.23 MB

     Estimated total dynamical RAM >     501.90 MB

     Initial potential from superposition of free atoms

     starting charge       9.9998, renormalised to      10.0000


     %%%%%%%%%%%%%%%%%%%%%%%%%%%%%%%%%%%%%%%%%%%%%%%%%%%%%%%%%%%%%%%%%%%%%%%%
     %                                                                      %
     % You are using vdW-DF, which was implemented by the Thonhauser group. %
     % Please cite the following two papers that made this development      %
     % possible and the two reviews that describe the various versions:     %
     %                                                                      %
     %   T. Thonhauser et al., PRL 115, 136402 (2015).                      %
     %   T. Thonhauser et al., PRB 76, 125112 (2007).                       %
     %   K. Berland et al., Rep. Prog. Phys. 78, 066501 (2015).             %
     %   D.C. Langreth et al., J. Phys.: Condens. Matter 21, 084203 (2009). %
     %                                                                      %
     % If you are calculating stress with vdW-DF, please also cite:         %
     %                                                                      %
     %   R. Sabatini et al., J. Phys.: Condens. Matter 24, 424209 (2012).   %
     %                                                                      %
     %%%%%%%%%%%%%%%%%%%%%%%%%%%%%%%%%%%%%%%%%%%%%%%%%%%%%%%%%%%%%%%%%%%%%%%%

     %%%%%%%%%%%%%%%%%%%%%%%%%%%%%%%%%%%%%%%%%%%%%%%%%%%%%%%%%%%%%%%%%%%%%%%%
     %                                                                      %
     %  vdW-DF NEWS:                                                        %
     %                                                                      %
     %  * vdW-DF3 is now available. DOI: 10.1021/acs.jctc.0c00471           %
     %    use with input_dft = 'vdW-DF3-opt1' or 'vdW-DF3-opt2'             %
     %                                                                      %
     %  * Unscreened and range-separated vdW-DF hybrid functionals          %
     %    DOI: 10.1063/1.4986522 and 10.1088/1361-648X/ac2ad2               %
     %    use with input_dft = 'vdW-DF-cx0' (etc) and 'vdW-DF-ahcx'         %
     %                                                                      %
     %%%%%%%%%%%%%%%%%%%%%%%%%%%%%%%%%%%%%%%%%%%%%%%%%%%%%%%%%%%%%%%%%%%%%%%%


     Starting wfcs are    9 randomized atomic wfcs

     total cpu time spent up to now is       15.7 secs

     Self-consistent Calculation

     iteration #  1     ecut=   170.00 Ry     beta= 0.70
     CG style diagonalization
     ethr =  1.00E-02,  avg # of iterations =  3.7

     Threshold (ethr) on eigenvalues was too large:
     Diagonalizing with lowered threshold

     CG style diagonalization
     ethr =  1.05E-04,  avg # of iterations =  6.1

     total cpu time spent up to now is       17.5 secs

     total energy              =     -66.16417425 Ry
     estimated scf accuracy    <       0.03165657 Ry

     iteration #  2     ecut=   170.00 Ry     beta= 0.70
     CG style diagonalization
     ethr =  3.17E-04,  avg # of iterations =  3.1

     total cpu time spent up to now is       18.4 secs

     total energy              =     -66.16973535 Ry
     estimated scf accuracy    <       0.00123737 Ry

     iteration #  3     ecut=   170.00 Ry     beta= 0.70
     CG style diagonalization
     ethr =  1.24E-05,  avg # of iterations =  5.1

     total cpu time spent up to now is       19.5 secs

     total energy              =     -66.17070111 Ry
     estimated scf accuracy    <       0.00016920 Ry

     iteration #  4     ecut=   170.00 Ry     beta= 0.70
     CG style diagonalization
     ethr =  1.69E-06,  avg # of iterations =  4.4

     total cpu time spent up to now is       20.6 secs

     total energy              =     -66.17073597 Ry
     estimated scf accuracy    <       0.00006947 Ry

     iteration #  5     ecut=   170.00 Ry     beta= 0.70
     CG style diagonalization
     ethr =  6.95E-07,  avg # of iterations =  3.6

     total cpu time spent up to now is       21.5 secs

     total energy              =     -66.17076520 Ry
     estimated scf accuracy    <       0.00000362 Ry

     iteration #  6     ecut=   170.00 Ry     beta= 0.70
     CG style diagonalization
     ethr =  3.62E-08,  avg # of iterations =  4.6

     total cpu time spent up to now is       22.6 secs

     total energy              =     -66.17077025 Ry
     estimated scf accuracy    <       0.00000120 Ry

     iteration #  7     ecut=   170.00 Ry     beta= 0.70
     CG style diagonalization
     ethr =  1.20E-08,  avg # of iterations =  3.2

     total cpu time spent up to now is       23.4 secs

     total energy              =     -66.17076993 Ry
     estimated scf accuracy    <       0.00000079 Ry

     iteration #  8     ecut=   170.00 Ry     beta= 0.70
     CG style diagonalization
     ethr =  7.86E-09,  avg # of iterations =  3.3

     total cpu time spent up to now is       24.4 secs

     total energy              =     -66.17077017 Ry
     estimated scf accuracy    <       0.00000002 Ry

     iteration #  9     ecut=   170.00 Ry     beta= 0.70
     CG style diagonalization
     ethr =  1.65E-10,  avg # of iterations =  5.4

     total cpu time spent up to now is       25.5 secs

     total energy              =     -66.17077020 Ry
     estimated scf accuracy    <       0.00000007 Ry

     iteration # 10     ecut=   170.00 Ry     beta= 0.70
     CG style diagonalization
     ethr =  1.65E-10,  avg # of iterations =  3.3

     total cpu time spent up to now is       26.4 secs

     total energy              =     -66.17077019 Ry
     estimated scf accuracy    <       0.00000001 Ry

     iteration # 11     ecut=   170.00 Ry     beta= 0.70
     CG style diagonalization
     ethr =  1.50E-10,  avg # of iterations =  3.3

     total cpu time spent up to now is       27.3 secs

     End of self-consistent calculation

          k = 0.0000 0.0000 0.0000 (  3839 PWs)   bands (ev):

     7.0107  13.0726  13.0726  13.0726  15.0558  15.0558  32.4910  37.2158
    37.2158

          k =-0.1250 0.1250-0.1250 (  3900 PWs)   bands (ev):

     7.6002  12.8553  13.2808  13.2808  14.9684  14.9684  33.2424  34.4524
    38.0035

          k =-0.2500 0.2500-0.2500 (  3912 PWs)   bands (ev):

     8.9844  12.7903  13.4202  13.4202  15.2465  15.2465  30.1184  33.8831
    39.3840

          k =-0.3750 0.3750-0.3750 (  3903 PWs)   bands (ev):

     9.7314  13.1514  13.1514  14.4712  16.1430  16.1430  25.3576  32.5216
    37.4497

          k = 0.5000-0.5000 0.5000 (  3906 PWs)   bands (ev):

     9.7675  13.0011  13.0011  16.5300  16.6323  16.6323  22.3406  31.8842
    36.2269

          k = 0.0000 0.2500 0.0000 (  3911 PWs)   bands (ev):

     7.8011  12.5986  13.4827  13.4827  14.5413  15.2596  33.6090  35.4755
    36.8053

          k =-0.1250 0.3750-0.1250 (  3934 PWs)   bands (ev):

     8.9860  12.2259  13.5435  13.8207  14.6905  15.5755  32.0053  34.6106
    36.2413

          k =-0.2500 0.5000-0.2500 (  3924 PWs)   bands (ev):

    10.0802  12.7720  13.0107  13.6769  16.2914  16.3191  27.1154  33.4742
    35.3291

          k = 0.6250-0.3750 0.6250 (  3936 PWs)   bands (ev):

    10.2154  12.6697  13.4205  14.3253  16.6657  18.6645  22.7315  32.4556
    35.1220

          k = 0.5000-0.2500 0.5000 (  3933 PWs)   bands (ev):

    10.2496  12.7801  13.4113  14.1111  16.0132  18.1632  24.0872  32.4417
    34.2786

          k = 0.3750-0.1250 0.3750 (  3919 PWs)   bands (ev):

     9.8896  12.5554  13.2388  13.6951  14.8712  16.5998  28.7973  33.2346
    35.6571

          k = 0.2500 0.0000 0.2500 (  3905 PWs)   bands (ev):

     8.5074  12.5040  13.4909  13.6263  14.5017  15.4680  32.7377  33.9008
    36.7064

          k = 0.0000 0.5000 0.0000 (  3928 PWs)   bands (ev):

     9.6659  11.5962  13.8414  14.6403  14.6403  15.7765  33.8761  33.8761
    34.5570

          k =-0.1250 0.6250-0.1250 (  3940 PWs)   bands (ev):

    10.4759  11.3576  13.5510  14.8628  16.4006  16.4442  29.1528  32.3948
    32.8882

          k = 0.7500-0.2500 0.7500 (  3931 PWs)   bands (ev):

    10.7763  11.8614  13.3751  14.5639  16.7530  19.6864  24.1525  30.6925
    32.4336

          k = 0.6250-0.1250 0.6250 (  3934 PWs)   bands (ev):

    11.1265  12.1982  13.2323  14.3216  16.0691  20.5639  23.7948  28.9722
    34.4979

          k = 0.5000 0.0000 0.5000 (  3943 PWs)   bands (ev):

    11.2182  12.3067  12.6773  14.2118  15.0136  18.4587  27.4779  29.4571
    35.0469

          k = 0.0000 0.7500 0.0000 (  3960 PWs)   bands (ev):

    10.2288  10.7380  15.8805  16.1940  16.1940  16.3341  29.4878  30.1297
    30.1297

          k = 0.8750-0.1250 0.8750 (  3947 PWs)   bands (ev):

    10.3194  10.7667  15.2557  15.9736  16.8778  19.5627  25.6043  28.3544
    29.6669

          k = 0.7500 0.0000 0.7500 (  3927 PWs)   bands (ev):

    10.7572  11.5092  14.0063  15.3739  16.4582  22.5664  23.3549  26.5809
    31.4862

          k = 0.0000-1.0000 0.0000 (  3940 PWs)   bands (ev):

     9.9849  10.4142  16.5789  17.0646  17.0646  18.7513  25.3154  28.4213
    28.4213

          k =-0.2500 0.5000 0.0000 (  3925 PWs)   bands (ev):

    10.2186  11.8524  13.0658  14.6464  14.7160  16.6472  30.2829  32.2829
    35.0353

          k = 0.6250-0.3750 0.8750 (  3933 PWs)   bands (ev):

    10.9717  12.3255  12.6102  14.3590  15.9354  18.5441  25.9425  31.0385
    33.1949

          k = 0.5000-0.2500 0.7500 (  3926 PWs)   bands (ev):

    10.9825  12.1186  13.4494  14.1044  16.4344  21.1119  22.1330  31.3662
    31.9716

          k = 0.7500-0.2500 1.0000 (  3944 PWs)   bands (ev):

    10.8285  11.1791  13.5854  15.7452  16.1838  18.7462  27.2498  29.1078
    30.8542

          k = 0.6250-0.1250 0.8750 (  3940 PWs)   bands (ev):

    11.1373  11.6899  13.1938  15.0705  16.6787  21.9837  23.8145  27.8212
    30.0667

          k = 0.5000 0.0000 0.7500 (  3935 PWs)   bands (ev):

    11.6957  12.0277  12.4175  14.7963  16.1940  20.7905  26.1220  26.4785
    31.6908

          k =-0.2500-1.0000 0.0000 (  3946 PWs)   bands (ev):

    10.5347  10.9147  14.7069  15.8071  17.0662  21.5497  24.4041  27.5290
    28.5272

          k =-0.5000-1.0000 0.0000 (  3972 PWs)   bands (ev):

    11.3232  12.3838  12.3838  14.7648  17.0677  23.8143  24.9743  24.9743
    28.5137

     the Fermi energy is    16.5744 ev

!    total energy              =     -66.17077020 Ry
     estimated scf accuracy    <          4.9E-11 Ry
     smearing contrib. (-TS)   =      -0.00533904 Ry
     internal energy E=F+TS    =     -66.16543115 Ry

     The total energy is F=E-TS. E is the sum of the following terms:
     one-electron contribution =      15.34223323 Ry
     hartree contribution      =       4.47399240 Ry
     xc contribution           =     -24.76854497 Ry
     ewald contribution        =     -61.21311180 Ry

     convergence has been achieved in  11 iterations

     Writing all to output data dir ./Ptbulk.save/
 
     init_run     :     15.21s CPU     15.37s WALL (       1 calls)
     electrons    :     11.32s CPU     11.76s WALL (       1 calls)

     Called by init_run:
     wfcinit      :      0.09s CPU      0.10s WALL (       1 calls)
     potinit      :     13.83s CPU     13.90s WALL (       1 calls)
     hinit0       :      1.24s CPU      1.32s WALL (       1 calls)

     Called by electrons:
     c_bands      :      5.23s CPU      5.24s WALL (      12 calls)
     sum_band     :      0.85s CPU      0.85s WALL (      12 calls)
     v_of_rho     :     17.29s CPU     17.62s WALL (      12 calls)
     newd         :      0.25s CPU      0.24s WALL (      12 calls)
     mix_rho      :      0.11s CPU      0.11s WALL (      12 calls)
     vdW_kernel   :     11.99s CPU     11.99s WALL (       1 calls)

     Called by c_bands:
     init_us_2    :      0.08s CPU      0.09s WALL (      50 calls)
     init_us_2:cp :      0.08s CPU      0.09s WALL (      50 calls)
     ccgdiagg     :      3.61s CPU      3.64s WALL (      24 calls)
     wfcrot       :      0.98s CPU      0.96s WALL (      22 calls)

     Called by *cgdiagg:
     h_psi        :      4.21s CPU      4.12s WALL (     730 calls)
     s_psi        :      0.13s CPU      0.16s WALL (    1438 calls)

     Called by h_psi:
     h_psi:calbec :      0.05s CPU      0.13s WALL (     730 calls)
     vloc_psi     :      4.03s CPU      3.88s WALL (     730 calls)
     add_vuspsi   :      0.13s CPU      0.09s WALL (     730 calls)
     hs_1psi      :      3.33s CPU      3.31s WALL (     708 calls)
     s_1psi       :      0.12s CPU      0.15s WALL (     708 calls)

     General routines
     calbec       :      0.12s CPU      0.22s WALL (    1462 calls)
     fft          :      1.43s CPU      1.44s WALL (     733 calls)
     ffts         :      0.01s CPU      0.02s WALL (      12 calls)
     fftw         :      3.84s CPU      3.81s WALL (    2028 calls)
 
     Parallel routines
 
     PWSCF        :     26.74s CPU     28.86s WALL

 
   This run was terminated on:  10:48:41   7Oct2022            

=------------------------------------------------------------------------------=
   JOB DONE.
=------------------------------------------------------------------------------=
