
     Program PWSCF v.7.1 starts on  7Oct2022 at 10:36:50 

     This program is part of the open-source Quantum ESPRESSO suite
     for quantum simulation of materials; please cite
         "P. Giannozzi et al., J. Phys.:Condens. Matter 21 395502 (2009);
         "P. Giannozzi et al., J. Phys.:Condens. Matter 29 465901 (2017);
         "P. Giannozzi et al., J. Chem. Phys. 152 154105 (2020);
          URL http://www.quantum-espresso.org", 
     in publications or presentations arising from this work. More details at
     http://www.quantum-espresso.org/quote

     Parallel version (MPI), running on    24 processors

     MPI processes distributed on     3 nodes
     93577 MiB available memory on the printing compute node when the environment starts
 
     Waiting for input...
     Reading input from standard input

     Current dimensions of program PWSCF are:
     Max number of different atomic species (ntypx) = 10
     Max number of k-points (npk) =  40000
     Max angular momentum in pseudopotentials (lmaxx) =  4
     file Pt.pbe-n-rrkjus_psl.1.0.0.UPF: wavefunction(s)  6S renormalized

     **************************************************************************
     Initializing libbeef V0.1.2 with the BEEF-vdW functional.
     Citation: Wellendorff et al., PRB 85, 235149 (2012).
     **************************************************************************


     IMPORTANT: XC functional enforced from input :
     Exchange-correlation= BEEF-VDW
                           (   1   4  43  14   2   0   0)
     Any further DFT definition will be discarded
     Please, verify this is what you really want

 
     K-points division:     npool     =      24
     Subspace diagonalization in iterative solution of the eigenvalue problem:
     a serial algorithm will be used

 
     G-vector sticks info
     --------------------
     sticks:   dense  smooth     PW     G-vecs:    dense   smooth      PW
     Sum        1261    1261    367                29363    29363    4645
 
     Using Slab Decomposition
 


     bravais-lattice index     =            2
     lattice parameter (alat)  =       7.3120  a.u.
     unit-cell volume          =      97.7346 (a.u.)^3
     number of atoms/cell      =            1
     number of atomic types    =            1
     number of electrons       =        10.00
     number of Kohn-Sham states=            9
     kinetic-energy cutoff     =     170.0000  Ry
     charge density cutoff     =     680.0000  Ry
     scf convergence threshold =      1.0E-09
     mixing beta               =       0.7000
     number of iterations used =            8  plain     mixing
     Exchange-correlation= BEEF-VDW
                           (   1   4  43  14   2   0   0)

     celldm(1)=   7.312000  celldm(2)=   0.000000  celldm(3)=   0.000000
     celldm(4)=   0.000000  celldm(5)=   0.000000  celldm(6)=   0.000000

     crystal axes: (cart. coord. in units of alat)
               a(1) = (  -0.500000   0.000000   0.500000 )  
               a(2) = (   0.000000   0.500000   0.500000 )  
               a(3) = (  -0.500000   0.500000   0.000000 )  

     reciprocal axes: (cart. coord. in units 2 pi/alat)
               b(1) = ( -1.000000 -1.000000  1.000000 )  
               b(2) = (  1.000000  1.000000  1.000000 )  
               b(3) = ( -1.000000  1.000000 -1.000000 )  


     PseudoPot. # 1 for Pt read from file:
     ./pseudo/Pt.pbe-n-rrkjus_psl.1.0.0.UPF
     MD5 check sum: 6bc887cfe28d63a5fc1f72d35a7d3ef7
     Pseudo is Ultrasoft + core correction, Zval = 10.0
     Generated using &quot;atomic&quot; code by A. Dal Corso  v.6.3
     Using radial grid of 1277 points,  6 beta functions with: 
                l(1) =   0
                l(2) =   0
                l(3) =   1
                l(4) =   1
                l(5) =   2
                l(6) =   2
     Q(r) pseudized with 0 coefficients 


     atomic species   valence    mass     pseudopotential
        Pt            10.00   195.07800     Pt( 1.00)

     48 Sym. Ops., with inversion, found



   Cartesian axes

     site n.     atom                  positions (alat units)
         1           Pt  tau(   1) = (   0.0000000   0.0000000   0.0000000  )

     number of k points=    29  Gaussian smearing, width (Ry)=  0.0200
                       cart. coord. in units 2pi/alat
        k(    1) = (   0.0000000   0.0000000   0.0000000), wk =   0.0039062
        k(    2) = (  -0.1250000   0.1250000  -0.1250000), wk =   0.0312500
        k(    3) = (  -0.2500000   0.2500000  -0.2500000), wk =   0.0312500
        k(    4) = (  -0.3750000   0.3750000  -0.3750000), wk =   0.0312500
        k(    5) = (   0.5000000  -0.5000000   0.5000000), wk =   0.0156250
        k(    6) = (   0.0000000   0.2500000   0.0000000), wk =   0.0234375
        k(    7) = (  -0.1250000   0.3750000  -0.1250000), wk =   0.0937500
        k(    8) = (  -0.2500000   0.5000000  -0.2500000), wk =   0.0937500
        k(    9) = (   0.6250000  -0.3750000   0.6250000), wk =   0.0937500
        k(   10) = (   0.5000000  -0.2500000   0.5000000), wk =   0.0937500
        k(   11) = (   0.3750000  -0.1250000   0.3750000), wk =   0.0937500
        k(   12) = (   0.2500000   0.0000000   0.2500000), wk =   0.0468750
        k(   13) = (   0.0000000   0.5000000   0.0000000), wk =   0.0234375
        k(   14) = (  -0.1250000   0.6250000  -0.1250000), wk =   0.0937500
        k(   15) = (   0.7500000  -0.2500000   0.7500000), wk =   0.0937500
        k(   16) = (   0.6250000  -0.1250000   0.6250000), wk =   0.0937500
        k(   17) = (   0.5000000   0.0000000   0.5000000), wk =   0.0468750
        k(   18) = (   0.0000000   0.7500000   0.0000000), wk =   0.0234375
        k(   19) = (   0.8750000  -0.1250000   0.8750000), wk =   0.0937500
        k(   20) = (   0.7500000   0.0000000   0.7500000), wk =   0.0468750
        k(   21) = (   0.0000000  -1.0000000   0.0000000), wk =   0.0117188
        k(   22) = (  -0.2500000   0.5000000   0.0000000), wk =   0.0937500
        k(   23) = (   0.6250000  -0.3750000   0.8750000), wk =   0.1875000
        k(   24) = (   0.5000000  -0.2500000   0.7500000), wk =   0.0937500
        k(   25) = (   0.7500000  -0.2500000   1.0000000), wk =   0.0937500
        k(   26) = (   0.6250000  -0.1250000   0.8750000), wk =   0.1875000
        k(   27) = (   0.5000000   0.0000000   0.7500000), wk =   0.0937500
        k(   28) = (  -0.2500000  -1.0000000   0.0000000), wk =   0.0468750
        k(   29) = (  -0.5000000  -1.0000000   0.0000000), wk =   0.0234375

     Dense  grid:    29363 G-vectors     FFT dimensions: (  45,  45,  45)

     Estimated max dynamical RAM per process >      26.99 MB

     Estimated total dynamical RAM >     482.85 MB

     Initial potential from superposition of free atoms

     starting charge       9.9998, renormalised to      10.0000


     %%%%%%%%%%%%%%%%%%%%%%%%%%%%%%%%%%%%%%%%%%%%%%%%%%%%%%%%%%%%%%%%%%%%%%%%
     %                                                                      %
     % You are using vdW-DF, which was implemented by the Thonhauser group. %
     % Please cite the following two papers that made this development      %
     % possible and the two reviews that describe the various versions:     %
     %                                                                      %
     %   T. Thonhauser et al., PRL 115, 136402 (2015).                      %
     %   T. Thonhauser et al., PRB 76, 125112 (2007).                       %
     %   K. Berland et al., Rep. Prog. Phys. 78, 066501 (2015).             %
     %   D.C. Langreth et al., J. Phys.: Condens. Matter 21, 084203 (2009). %
     %                                                                      %
     % If you are calculating stress with vdW-DF, please also cite:         %
     %                                                                      %
     %   R. Sabatini et al., J. Phys.: Condens. Matter 24, 424209 (2012).   %
     %                                                                      %
     %%%%%%%%%%%%%%%%%%%%%%%%%%%%%%%%%%%%%%%%%%%%%%%%%%%%%%%%%%%%%%%%%%%%%%%%

     %%%%%%%%%%%%%%%%%%%%%%%%%%%%%%%%%%%%%%%%%%%%%%%%%%%%%%%%%%%%%%%%%%%%%%%%
     %                                                                      %
     %  vdW-DF NEWS:                                                        %
     %                                                                      %
     %  * vdW-DF3 is now available. DOI: 10.1021/acs.jctc.0c00471           %
     %    use with input_dft = 'vdW-DF3-opt1' or 'vdW-DF3-opt2'             %
     %                                                                      %
     %  * Unscreened and range-separated vdW-DF hybrid functionals          %
     %    DOI: 10.1063/1.4986522 and 10.1088/1361-648X/ac2ad2               %
     %    use with input_dft = 'vdW-DF-cx0' (etc) and 'vdW-DF-ahcx'         %
     %                                                                      %
     %%%%%%%%%%%%%%%%%%%%%%%%%%%%%%%%%%%%%%%%%%%%%%%%%%%%%%%%%%%%%%%%%%%%%%%%


     Starting wfcs are    9 randomized atomic wfcs

     total cpu time spent up to now is       14.7 secs

     Self-consistent Calculation

     iteration #  1     ecut=   170.00 Ry     beta= 0.70
     CG style diagonalization
     ethr =  1.00E-02,  avg # of iterations =  3.9

     Threshold (ethr) on eigenvalues was too large:
     Diagonalizing with lowered threshold

     CG style diagonalization
     ethr =  9.46E-05,  avg # of iterations =  6.2

     total cpu time spent up to now is       16.6 secs

     total energy              =     -66.15636638 Ry
     estimated scf accuracy    <       0.02988966 Ry

     iteration #  2     ecut=   170.00 Ry     beta= 0.70
     CG style diagonalization
     ethr =  2.99E-04,  avg # of iterations =  3.0

     total cpu time spent up to now is       17.4 secs

     total energy              =     -66.16071386 Ry
     estimated scf accuracy    <       0.00060702 Ry

     iteration #  3     ecut=   170.00 Ry     beta= 0.70
     CG style diagonalization
     c_bands:  1 eigenvalues not converged
     ethr =  6.07E-06,  avg # of iterations =  6.2

     total cpu time spent up to now is       18.7 secs

     total energy              =     -66.16155821 Ry
     estimated scf accuracy    <       0.00026550 Ry

     iteration #  4     ecut=   170.00 Ry     beta= 0.70
     CG style diagonalization
     ethr =  2.66E-06,  avg # of iterations =  4.3

     total cpu time spent up to now is       19.7 secs

     total energy              =     -66.16151519 Ry
     estimated scf accuracy    <       0.00039134 Ry

     iteration #  5     ecut=   170.00 Ry     beta= 0.70
     CG style diagonalization
     ethr =  2.66E-06,  avg # of iterations =  3.5

     total cpu time spent up to now is       20.6 secs

     total energy              =     -66.16160015 Ry
     estimated scf accuracy    <       0.00000022 Ry

     iteration #  6     ecut=   170.00 Ry     beta= 0.70
     CG style diagonalization
     ethr =  2.15E-09,  avg # of iterations =  6.9

     total cpu time spent up to now is       21.9 secs

     total energy              =     -66.16160574 Ry
     estimated scf accuracy    <       0.00000086 Ry

     iteration #  7     ecut=   170.00 Ry     beta= 0.70
     CG style diagonalization
     ethr =  2.15E-09,  avg # of iterations =  3.0

     total cpu time spent up to now is       22.8 secs

     total energy              =     -66.16160525 Ry
     estimated scf accuracy    <       0.00000071 Ry

     iteration #  8     ecut=   170.00 Ry     beta= 0.70
     CG style diagonalization
     ethr =  2.15E-09,  avg # of iterations =  3.8

     total cpu time spent up to now is       23.7 secs

     total energy              =     -66.16160548 Ry
     estimated scf accuracy    <       0.00000006 Ry

     iteration #  9     ecut=   170.00 Ry     beta= 0.70
     CG style diagonalization
     ethr =  5.52E-10,  avg # of iterations =  3.7

     total cpu time spent up to now is       24.6 secs

     total energy              =     -66.16160551 Ry
     estimated scf accuracy    <       0.00000003 Ry

     iteration # 10     ecut=   170.00 Ry     beta= 0.70
     CG style diagonalization
     ethr =  3.26E-10,  avg # of iterations =  3.2

     total cpu time spent up to now is       25.5 secs

     total energy              =     -66.16160551 Ry
     estimated scf accuracy    <       0.00000007 Ry

     iteration # 11     ecut=   170.00 Ry     beta= 0.70
     CG style diagonalization
     ethr =  3.26E-10,  avg # of iterations =  3.0

     total cpu time spent up to now is       26.4 secs

     total energy              =     -66.16160545 Ry
     estimated scf accuracy    <       0.00000006 Ry

     iteration # 12     ecut=   170.00 Ry     beta= 0.70
     CG style diagonalization
     ethr =  3.26E-10,  avg # of iterations =  3.6

     total cpu time spent up to now is       27.3 secs

     total energy              =     -66.16160550 Ry
     estimated scf accuracy    <       0.00000003 Ry

     iteration # 13     ecut=   170.00 Ry     beta= 0.70
     CG style diagonalization
     ethr =  2.95E-10,  avg # of iterations =  3.0

     total cpu time spent up to now is       28.2 secs

     total energy              =     -66.16160549 Ry
     estimated scf accuracy    <       0.00000004 Ry

     iteration # 14     ecut=   170.00 Ry     beta= 0.70
     CG style diagonalization
     ethr =  2.95E-10,  avg # of iterations =  3.0

     total cpu time spent up to now is       29.0 secs

     total energy              =     -66.16160548 Ry
     estimated scf accuracy    <       0.00000001 Ry

     iteration # 15     ecut=   170.00 Ry     beta= 0.70
     CG style diagonalization
     ethr =  1.48E-10,  avg # of iterations =  3.0

     total cpu time spent up to now is       29.9 secs

     total energy              =     -66.16160549 Ry
     estimated scf accuracy    <          2.9E-09 Ry

     iteration # 16     ecut=   170.00 Ry     beta= 0.70
     CG style diagonalization
     ethr =  2.89E-11,  avg # of iterations =  3.2

     total cpu time spent up to now is       30.7 secs

     End of self-consistent calculation

          k = 0.0000 0.0000 0.0000 (  3695 PWs)   bands (ev):

     8.0265  14.4552  14.4552  14.4552  16.6968  16.6968  34.2347  39.4011
    39.4011

          k =-0.1250 0.1250-0.1250 (  3656 PWs)   bands (ev):

     8.6581  14.2063  14.6875  14.6875  16.5928  16.5928  35.1296  36.5842
    40.3146

          k =-0.2500 0.2500-0.2500 (  3660 PWs)   bands (ev):

    10.1096  14.1343  14.8413  14.8413  16.8993  16.8993  32.4443  35.9055
    42.1566

          k =-0.3750 0.3750-0.3750 (  3663 PWs)   bands (ev):

    10.8238  14.5373  14.5373  15.9590  17.9171  17.9171  27.7541  34.3573
    40.0839

          k = 0.5000-0.5000 0.5000 (  3648 PWs)   bands (ev):

    10.8353  14.3683  14.3683  18.0698  18.4787  18.4787  24.7378  33.6330
    38.7020

          k = 0.0000 0.2500 0.0000 (  3667 PWs)   bands (ev):

     8.8736  13.9163  14.9136  14.9136  16.1034  16.9261  35.5156  37.6036
    39.1889

          k =-0.1250 0.3750-0.1250 (  3658 PWs)   bands (ev):

    10.1279  13.4973  14.9734  15.2914  16.2664  17.2789  34.3396  36.7273
    38.8609

          k =-0.2500 0.5000-0.2500 (  3654 PWs)   bands (ev):

    11.2226  14.1109  14.3776  15.1272  18.0456  18.1214  29.5171  35.4874
    37.9521

          k = 0.6250-0.3750 0.6250 (  3674 PWs)   bands (ev):

    11.3241  13.9860  14.8372  15.8177  18.5170  20.5568  25.0718  34.4004
    37.6424

          k = 0.5000-0.2500 0.5000 (  3668 PWs)   bands (ev):

    11.3710  14.1120  14.8260  15.5787  17.7666  20.1012  26.4459  34.5061
    36.6766

          k = 0.3750-0.1250 0.3750 (  3658 PWs)   bands (ev):

    11.0569  13.8749  14.6267  15.1457  16.4698  18.4255  31.1973  35.5628
    38.0618

          k = 0.2500 0.0000 0.2500 (  3681 PWs)   bands (ev):

     9.6249  13.8090  14.9196  15.0725  16.0569  17.1552  34.9441  36.0960
    39.0462

          k = 0.0000 0.5000 0.0000 (  3615 PWs)   bands (ev):

    10.8281  12.7903  15.3076  16.2106  16.2106  17.5098  36.4205  36.4205
    36.7693

          k =-0.1250 0.6250-0.1250 (  3647 PWs)   bands (ev):

    11.6253  12.5305  14.9888  16.4608  18.2120  18.2165  31.5730  34.8587
    35.3818

          k = 0.7500-0.2500 0.7500 (  3659 PWs)   bands (ev):

    11.9080  13.0854  14.7917  16.1208  18.6168  21.7227  26.3771  33.2024
    34.8835

          k = 0.6250-0.1250 0.6250 (  3659 PWs)   bands (ev):

    12.3020  13.4584  14.6229  15.8454  17.8296  22.6379  26.1056  31.4424
    37.1204

          k = 0.5000 0.0000 0.5000 (  3651 PWs)   bands (ev):

    12.4600  13.5934  13.9881  15.7210  16.6309  20.4721  29.8398  32.0271
    37.1919

          k = 0.0000 0.7500 0.0000 (  3647 PWs)   bands (ev):

    11.3051  11.8374  17.5086  17.9679  17.9679  18.1434  32.1807  32.4198
    32.4198

          k = 0.8750-0.1250 0.8750 (  3653 PWs)   bands (ev):

    11.3809  11.8740  16.8703  17.7218  18.7584  21.5350  27.9345  30.7852
    31.9125

          k = 0.7500 0.0000 0.7500 (  3660 PWs)   bands (ev):

    11.8602  12.7027  15.4847  17.0349  18.2741  24.7059  25.5553  29.0524
    33.9036

          k = 0.0000-1.0000 0.0000 (  3692 PWs)   bands (ev):

    11.0090  11.4799  18.4231  18.9708  18.9708  20.4570  27.9437  30.5402
    30.5402

          k =-0.2500 0.5000 0.0000 (  3648 PWs)   bands (ev):

    11.4205  13.0801  14.4313  16.2168  16.2923  18.4798  32.6789  34.8903
    37.3812

          k = 0.6250-0.3750 0.8750 (  3652 PWs)   bands (ev):

    12.1590  13.5970  13.9407  15.8885  17.6719  20.5412  28.2878  33.5487
    35.5253

          k = 0.5000-0.2500 0.7500 (  3656 PWs)   bands (ev):

    12.1561  13.3618  14.8604  15.6020  18.2471  23.1409  24.4328  33.9339
    34.2884

          k = 0.7500-0.2500 1.0000 (  3659 PWs)   bands (ev):

    11.9598  12.3331  15.0253  17.4512  17.9569  20.7381  29.6008  31.4753
    33.3637

          k = 0.6250-0.1250 0.8750 (  3663 PWs)   bands (ev):

    12.2819  12.9040  14.5853  16.6867  18.5252  24.1852  25.9918  30.2766
    32.4939

          k = 0.5000 0.0000 0.7500 (  3651 PWs)   bands (ev):

    12.8949  13.2991  13.7187  16.3765  17.9700  22.9058  28.4947  28.8475
    34.1908

          k =-0.2500-1.0000 0.0000 (  3664 PWs)   bands (ev):

    11.6120  12.0411  16.2624  17.5274  18.9727  23.5885  26.8268  29.7232
    30.8999

          k =-0.5000-1.0000 0.0000 (  3676 PWs)   bands (ev):

    12.4770  13.6814  13.6814  16.3383  18.9746  26.1834  27.1897  27.1897
    30.9656

     the Fermi energy is    18.3968 ev

!    total energy              =     -66.16160549 Ry
     estimated scf accuracy    <          7.8E-10 Ry
     smearing contrib. (-TS)   =      -0.00466518 Ry
     internal energy E=F+TS    =     -66.15694031 Ry

     The total energy is F=E-TS. E is the sum of the following terms:
     one-electron contribution =      17.34881267 Ry
     hartree contribution      =       4.04280027 Ry
     xc contribution           =     -24.84529731 Ry
     ewald contribution        =     -62.70325594 Ry

     convergence has been achieved in  16 iterations

     Writing all to output data dir ./Ptbulk.save/
 
     init_run     :     14.26s CPU     14.33s WALL (       1 calls)
     electrons    :     15.67s CPU     16.56s WALL (       1 calls)

     Called by init_run:
     wfcinit      :      0.10s CPU      0.10s WALL (       1 calls)
     potinit      :     12.95s CPU     13.00s WALL (       1 calls)
     hinit0       :      1.17s CPU      1.19s WALL (       1 calls)

     Called by electrons:
     c_bands      :      7.07s CPU      7.07s WALL (      17 calls)
     sum_band     :      1.20s CPU      1.20s WALL (      17 calls)
     v_of_rho     :     18.63s CPU     19.04s WALL (      17 calls)
     newd         :      0.32s CPU      0.33s WALL (      17 calls)
     mix_rho      :      0.17s CPU      0.18s WALL (      17 calls)
     vdW_kernel   :     11.33s CPU     11.33s WALL (       1 calls)

     Called by c_bands:
     init_us_2    :      0.16s CPU      0.11s WALL (      70 calls)
     init_us_2:cp :      0.15s CPU      0.11s WALL (      70 calls)
     ccgdiagg     :      5.01s CPU      5.02s WALL (      34 calls)
     wfcrot       :      1.38s CPU      1.41s WALL (      32 calls)

     Called by *cgdiagg:
     h_psi        :      5.67s CPU      5.76s WALL (    1001 calls)
     s_psi        :      0.29s CPU      0.21s WALL (    1970 calls)

     Called by h_psi:
     h_psi:calbec :      0.24s CPU      0.19s WALL (    1001 calls)
     vloc_psi     :      5.30s CPU      5.40s WALL (    1001 calls)
     add_vuspsi   :      0.07s CPU      0.12s WALL (    1001 calls)
     hs_1psi      :      4.54s CPU      4.57s WALL (     969 calls)
     s_1psi       :      0.24s CPU      0.22s WALL (     969 calls)

     General routines
     calbec       :      0.34s CPU      0.31s WALL (    2004 calls)
     fft          :      1.94s CPU      2.00s WALL (    1038 calls)
     ffts         :      0.02s CPU      0.03s WALL (      17 calls)
     fftw         :      5.08s CPU      5.15s WALL (    2820 calls)
 
     Parallel routines
 
     PWSCF        :     30.16s CPU     32.67s WALL

 
   This run was terminated on:  10:37:23   7Oct2022            

=------------------------------------------------------------------------------=
   JOB DONE.
=------------------------------------------------------------------------------=
