
     Program PWSCF v.7.1 starts on  7Oct2022 at 10:19:54 

     This program is part of the open-source Quantum ESPRESSO suite
     for quantum simulation of materials; please cite
         "P. Giannozzi et al., J. Phys.:Condens. Matter 21 395502 (2009);
         "P. Giannozzi et al., J. Phys.:Condens. Matter 29 465901 (2017);
         "P. Giannozzi et al., J. Chem. Phys. 152 154105 (2020);
          URL http://www.quantum-espresso.org", 
     in publications or presentations arising from this work. More details at
     http://www.quantum-espresso.org/quote

     Parallel version (MPI), running on    24 processors

     MPI processes distributed on     3 nodes
     49149 MiB available memory on the printing compute node when the environment starts
 
     Waiting for input...
     Reading input from standard input

     Current dimensions of program PWSCF are:
     Max number of different atomic species (ntypx) = 10
     Max number of k-points (npk) =  40000
     Max angular momentum in pseudopotentials (lmaxx) =  4
     file Pt.pbe-n-rrkjus_psl.1.0.0.UPF: wavefunction(s)  6S renormalized

     **************************************************************************
     Initializing libbeef V0.1.2 with the BEEF-vdW functional.
     Citation: Wellendorff et al., PRB 85, 235149 (2012).
     **************************************************************************


     IMPORTANT: XC functional enforced from input :
     Exchange-correlation= BEEF-VDW
                           (   1   4  43  14   2   0   0)
     Any further DFT definition will be discarded
     Please, verify this is what you really want

 
     K-points division:     npool     =      24
     Subspace diagonalization in iterative solution of the eigenvalue problem:
     a serial algorithm will be used

 
     G-vector sticks info
     --------------------
     sticks:   dense  smooth     PW     G-vecs:    dense   smooth      PW
     Sum        1285    1285    379                30467    30467    4909
 
     Using Slab Decomposition
 


     bravais-lattice index     =            2
     lattice parameter (alat)  =       7.4080  a.u.
     unit-cell volume          =     101.6349 (a.u.)^3
     number of atoms/cell      =            1
     number of atomic types    =            1
     number of electrons       =        10.00
     number of Kohn-Sham states=            9
     kinetic-energy cutoff     =     170.0000  Ry
     charge density cutoff     =     680.0000  Ry
     scf convergence threshold =      1.0E-09
     mixing beta               =       0.7000
     number of iterations used =            8  plain     mixing
     Exchange-correlation= BEEF-VDW
                           (   1   4  43  14   2   0   0)

     celldm(1)=   7.408000  celldm(2)=   0.000000  celldm(3)=   0.000000
     celldm(4)=   0.000000  celldm(5)=   0.000000  celldm(6)=   0.000000

     crystal axes: (cart. coord. in units of alat)
               a(1) = (  -0.500000   0.000000   0.500000 )  
               a(2) = (   0.000000   0.500000   0.500000 )  
               a(3) = (  -0.500000   0.500000   0.000000 )  

     reciprocal axes: (cart. coord. in units 2 pi/alat)
               b(1) = ( -1.000000 -1.000000  1.000000 )  
               b(2) = (  1.000000  1.000000  1.000000 )  
               b(3) = ( -1.000000  1.000000 -1.000000 )  


     PseudoPot. # 1 for Pt read from file:
     ./pseudo/Pt.pbe-n-rrkjus_psl.1.0.0.UPF
     MD5 check sum: 6bc887cfe28d63a5fc1f72d35a7d3ef7
     Pseudo is Ultrasoft + core correction, Zval = 10.0
     Generated using &quot;atomic&quot; code by A. Dal Corso  v.6.3
     Using radial grid of 1277 points,  6 beta functions with: 
                l(1) =   0
                l(2) =   0
                l(3) =   1
                l(4) =   1
                l(5) =   2
                l(6) =   2
     Q(r) pseudized with 0 coefficients 


     atomic species   valence    mass     pseudopotential
        Pt            10.00   195.07800     Pt( 1.00)

     48 Sym. Ops., with inversion, found



   Cartesian axes

     site n.     atom                  positions (alat units)
         1           Pt  tau(   1) = (   0.0000000   0.0000000   0.0000000  )

     number of k points=    29  Gaussian smearing, width (Ry)=  0.0200
                       cart. coord. in units 2pi/alat
        k(    1) = (   0.0000000   0.0000000   0.0000000), wk =   0.0039062
        k(    2) = (  -0.1250000   0.1250000  -0.1250000), wk =   0.0312500
        k(    3) = (  -0.2500000   0.2500000  -0.2500000), wk =   0.0312500
        k(    4) = (  -0.3750000   0.3750000  -0.3750000), wk =   0.0312500
        k(    5) = (   0.5000000  -0.5000000   0.5000000), wk =   0.0156250
        k(    6) = (   0.0000000   0.2500000   0.0000000), wk =   0.0234375
        k(    7) = (  -0.1250000   0.3750000  -0.1250000), wk =   0.0937500
        k(    8) = (  -0.2500000   0.5000000  -0.2500000), wk =   0.0937500
        k(    9) = (   0.6250000  -0.3750000   0.6250000), wk =   0.0937500
        k(   10) = (   0.5000000  -0.2500000   0.5000000), wk =   0.0937500
        k(   11) = (   0.3750000  -0.1250000   0.3750000), wk =   0.0937500
        k(   12) = (   0.2500000   0.0000000   0.2500000), wk =   0.0468750
        k(   13) = (   0.0000000   0.5000000   0.0000000), wk =   0.0234375
        k(   14) = (  -0.1250000   0.6250000  -0.1250000), wk =   0.0937500
        k(   15) = (   0.7500000  -0.2500000   0.7500000), wk =   0.0937500
        k(   16) = (   0.6250000  -0.1250000   0.6250000), wk =   0.0937500
        k(   17) = (   0.5000000   0.0000000   0.5000000), wk =   0.0468750
        k(   18) = (   0.0000000   0.7500000   0.0000000), wk =   0.0234375
        k(   19) = (   0.8750000  -0.1250000   0.8750000), wk =   0.0937500
        k(   20) = (   0.7500000   0.0000000   0.7500000), wk =   0.0468750
        k(   21) = (   0.0000000  -1.0000000   0.0000000), wk =   0.0117188
        k(   22) = (  -0.2500000   0.5000000   0.0000000), wk =   0.0937500
        k(   23) = (   0.6250000  -0.3750000   0.8750000), wk =   0.1875000
        k(   24) = (   0.5000000  -0.2500000   0.7500000), wk =   0.0937500
        k(   25) = (   0.7500000  -0.2500000   1.0000000), wk =   0.0937500
        k(   26) = (   0.6250000  -0.1250000   0.8750000), wk =   0.1875000
        k(   27) = (   0.5000000   0.0000000   0.7500000), wk =   0.0937500
        k(   28) = (  -0.2500000  -1.0000000   0.0000000), wk =   0.0468750
        k(   29) = (  -0.5000000  -1.0000000   0.0000000), wk =   0.0234375

     Dense  grid:    30467 G-vectors     FFT dimensions: (  45,  45,  45)

     Estimated max dynamical RAM per process >      27.70 MB

     Estimated total dynamical RAM >     493.61 MB

     Initial potential from superposition of free atoms

     starting charge       9.9998, renormalised to      10.0000


     %%%%%%%%%%%%%%%%%%%%%%%%%%%%%%%%%%%%%%%%%%%%%%%%%%%%%%%%%%%%%%%%%%%%%%%%
     %                                                                      %
     % You are using vdW-DF, which was implemented by the Thonhauser group. %
     % Please cite the following two papers that made this development      %
     % possible and the two reviews that describe the various versions:     %
     %                                                                      %
     %   T. Thonhauser et al., PRL 115, 136402 (2015).                      %
     %   T. Thonhauser et al., PRB 76, 125112 (2007).                       %
     %   K. Berland et al., Rep. Prog. Phys. 78, 066501 (2015).             %
     %   D.C. Langreth et al., J. Phys.: Condens. Matter 21, 084203 (2009). %
     %                                                                      %
     % If you are calculating stress with vdW-DF, please also cite:         %
     %                                                                      %
     %   R. Sabatini et al., J. Phys.: Condens. Matter 24, 424209 (2012).   %
     %                                                                      %
     %%%%%%%%%%%%%%%%%%%%%%%%%%%%%%%%%%%%%%%%%%%%%%%%%%%%%%%%%%%%%%%%%%%%%%%%

     %%%%%%%%%%%%%%%%%%%%%%%%%%%%%%%%%%%%%%%%%%%%%%%%%%%%%%%%%%%%%%%%%%%%%%%%
     %                                                                      %
     %  vdW-DF NEWS:                                                        %
     %                                                                      %
     %  * vdW-DF3 is now available. DOI: 10.1021/acs.jctc.0c00471           %
     %    use with input_dft = 'vdW-DF3-opt1' or 'vdW-DF3-opt2'             %
     %                                                                      %
     %  * Unscreened and range-separated vdW-DF hybrid functionals          %
     %    DOI: 10.1063/1.4986522 and 10.1088/1361-648X/ac2ad2               %
     %    use with input_dft = 'vdW-DF-cx0' (etc) and 'vdW-DF-ahcx'         %
     %                                                                      %
     %%%%%%%%%%%%%%%%%%%%%%%%%%%%%%%%%%%%%%%%%%%%%%%%%%%%%%%%%%%%%%%%%%%%%%%%


     Starting wfcs are    9 randomized atomic wfcs

     total cpu time spent up to now is       15.6 secs

     Self-consistent Calculation

     iteration #  1     ecut=   170.00 Ry     beta= 0.70
     CG style diagonalization
     ethr =  1.00E-02,  avg # of iterations =  3.8

     Threshold (ethr) on eigenvalues was too large:
     Diagonalizing with lowered threshold

     CG style diagonalization
     ethr =  9.98E-05,  avg # of iterations =  6.2

     total cpu time spent up to now is       17.5 secs

     total energy              =     -66.16190078 Ry
     estimated scf accuracy    <       0.03096991 Ry

     iteration #  2     ecut=   170.00 Ry     beta= 0.70
     CG style diagonalization
     ethr =  3.10E-04,  avg # of iterations =  3.1

     total cpu time spent up to now is       18.3 secs

     total energy              =     -66.16694634 Ry
     estimated scf accuracy    <       0.00093533 Ry

     iteration #  3     ecut=   170.00 Ry     beta= 0.70
     CG style diagonalization
     ethr =  9.35E-06,  avg # of iterations =  5.5

     total cpu time spent up to now is       19.5 secs

     total energy              =     -66.16783900 Ry
     estimated scf accuracy    <       0.00018833 Ry

     iteration #  4     ecut=   170.00 Ry     beta= 0.70
     CG style diagonalization
     ethr =  1.88E-06,  avg # of iterations =  4.1

     total cpu time spent up to now is       20.5 secs

     total energy              =     -66.16785511 Ry
     estimated scf accuracy    <       0.00011441 Ry

     iteration #  5     ecut=   170.00 Ry     beta= 0.70
     CG style diagonalization
     ethr =  1.14E-06,  avg # of iterations =  3.4

     total cpu time spent up to now is       21.4 secs

     total energy              =     -66.16788865 Ry
     estimated scf accuracy    <       0.00000133 Ry

     iteration #  6     ecut=   170.00 Ry     beta= 0.70
     CG style diagonalization
     ethr =  1.33E-08,  avg # of iterations =  5.4

     total cpu time spent up to now is       22.5 secs

     total energy              =     -66.16789389 Ry
     estimated scf accuracy    <       0.00000101 Ry

     iteration #  7     ecut=   170.00 Ry     beta= 0.70
     CG style diagonalization
     ethr =  1.01E-08,  avg # of iterations =  3.1

     total cpu time spent up to now is       23.4 secs

     total energy              =     -66.16789384 Ry
     estimated scf accuracy    <       0.00000026 Ry

     iteration #  8     ecut=   170.00 Ry     beta= 0.70
     CG style diagonalization
     ethr =  2.56E-09,  avg # of iterations =  3.6

     total cpu time spent up to now is       24.3 secs

     total energy              =     -66.16789393 Ry
     estimated scf accuracy    <          1.9E-09 Ry

     iteration #  9     ecut=   170.00 Ry     beta= 0.70
     CG style diagonalization
     ethr =  1.91E-11,  avg # of iterations =  6.1

     total cpu time spent up to now is       25.5 secs

     total energy              =     -66.16789395 Ry
     estimated scf accuracy    <          6.0E-09 Ry

     iteration # 10     ecut=   170.00 Ry     beta= 0.70
     CG style diagonalization
     ethr =  1.91E-11,  avg # of iterations =  3.4

     total cpu time spent up to now is       26.4 secs

     End of self-consistent calculation

          k = 0.0000 0.0000 0.0000 (  3839 PWs)   bands (ev):

     7.4644  13.6930  13.6930  13.6930  15.7907  15.7907  33.2779  38.2039
    38.2039

          k =-0.1250 0.1250-0.1250 (  3774 PWs)   bands (ev):

     8.0727  13.4617  13.9120  13.9120  15.6962  15.6962  34.0961  35.4150
    39.0487

          k =-0.2500 0.2500-0.2500 (  3807 PWs)   bands (ev):

     9.4875  13.3929  14.0578  14.0578  15.9869  15.9869  31.1713  34.7878
    40.6364

          k =-0.3750 0.3750-0.3750 (  3798 PWs)   bands (ev):

    10.2213  13.7734  13.7734  15.1365  16.9370  16.9370  26.4316  33.3474
    38.6367

          k = 0.5000-0.5000 0.5000 (  3798 PWs)   bands (ev):

    10.2468  13.6149  13.6149  17.2173  17.4581  17.4581  23.4127  32.6732
    37.3431

          k = 0.0000 0.2500 0.0000 (  3787 PWs)   bands (ev):

     8.2800  13.1903  14.1245  14.1245  15.2416  16.0058  34.4692  36.4367
    37.8840

          k =-0.1250 0.3750-0.1250 (  3787 PWs)   bands (ev):

     9.4961  12.7969  14.1851  14.4803  15.3968  16.3382  33.0619  35.5618
    37.4215

          k =-0.2500 0.5000-0.2500 (  3795 PWs)   bands (ev):

    10.5921  13.3721  13.6242  14.3275  17.0766  17.1255  28.1932  34.3798
    36.5084

          k = 0.6250-0.3750 0.6250 (  3794 PWs)   bands (ev):

    10.7128  13.2609  14.0562  14.9935  17.4937  19.5101  23.7783  33.3350
    36.2569

          k = 0.5000-0.2500 0.5000 (  3800 PWs)   bands (ev):

    10.7526  13.3783  14.0462  14.7679  16.7981  19.0294  25.1427  33.3805
    35.3486

          k = 0.3750-0.1250 0.3750 (  3795 PWs)   bands (ev):

    10.4119  13.1470  13.8617  14.3460  15.5877  17.4165  29.8774  34.2879
    36.7292

          k = 0.2500 0.0000 0.2500 (  3789 PWs)   bands (ev):

     9.0064  13.0899  14.1318  14.2751  15.1989  16.2235  33.7367  34.8965
    37.7559

          k = 0.0000 0.5000 0.0000 (  3831 PWs)   bands (ev):

    10.1856  12.1330  14.4988  15.3440  15.3440  16.5524  35.0197  35.0197
    35.5528

          k =-0.1250 0.6250-0.1250 (  3804 PWs)   bands (ev):

    10.9914  11.8845  14.1952  15.5789  17.2129  17.2354  30.2396  33.5011
    34.0126

          k = 0.7500-0.2500 0.7500 (  3822 PWs)   bands (ev):

    11.2847  12.4108  14.0096  15.2619  17.5865  20.5973  25.1491  31.8207
    33.5340

          k = 0.6250-0.1250 0.6250 (  3806 PWs)   bands (ev):

    11.6542  12.7637  13.8551  15.0050  16.8571  21.4927  24.8280  30.0796
    35.6755

          k = 0.5000 0.0000 0.5000 (  3787 PWs)   bands (ev):

    11.7741  12.8839  13.2656  14.8888  15.7384  19.3588  28.5383  30.6068
    36.0136

          k = 0.0000 0.7500 0.0000 (  3812 PWs)   bands (ev):

    10.7124  11.2325  16.6085  16.9879  16.9879  17.1435  30.6948  31.1577
    31.1577

          k = 0.8750-0.1250 0.8750 (  3821 PWs)   bands (ev):

    10.7968  11.2644  15.9786  16.7562  17.7187  20.4438  26.6531  29.4393
    30.6751

          k = 0.7500 0.0000 0.7500 (  3811 PWs)   bands (ev):

    11.2533  12.0447  14.6683  16.1181  17.2707  23.5278  24.3374  27.6858
    32.5709

          k = 0.0000-1.0000 0.0000 (  3812 PWs)   bands (ev):

    10.4457  10.8936  17.4036  17.9168  17.9168  19.5128  26.4917  29.3732
    29.3732

          k =-0.2500 0.5000 0.0000 (  3804 PWs)   bands (ev):

    10.7559  12.4039  13.6789  15.3503  15.4224  17.4670  31.3618  33.4521
    36.0909

          k = 0.6250-0.3750 0.8750 (  3806 PWs)   bands (ev):

    11.5040  12.8964  13.2067  15.0447  16.7129  19.4369  26.9936  32.1653
    34.2465

          k = 0.5000-0.2500 0.7500 (  3806 PWs)   bands (ev):

    11.5089  12.6773  14.0813  14.7761  17.2455  22.0184  23.1629  32.5183
    33.0156

          k = 0.7500-0.2500 1.0000 (  3801 PWs)   bands (ev):

    11.3366  11.6976  14.2305  16.5092  16.9774  19.6365  28.3059  30.1695
    31.9792

          k = 0.6250-0.1250 0.8750 (  3805 PWs)   bands (ev):

    11.6518  12.2346  13.8173  15.7948  17.5047  22.9691  24.7899  28.9208
    31.1548

          k = 0.5000 0.0000 0.7500 (  3812 PWs)   bands (ev):

    12.2349  12.5972  13.0009  15.5047  16.9889  21.7375  27.1853  27.5380
    32.8129

          k =-0.2500-1.0000 0.0000 (  3816 PWs)   bands (ev):

    11.0192  11.4208  15.4034  16.5776  17.9185  22.4599  25.4920  28.5139
    29.5883

          k =-0.5000-1.0000 0.0000 (  3828 PWs)   bands (ev):

    11.8417  12.9656  12.9656  15.4704  17.9202  24.8767  25.9658  25.9658
    29.6113

     the Fermi energy is    17.3890 ev

!    total energy              =     -66.16789395 Ry
     estimated scf accuracy    <          3.0E-10 Ry
     smearing contrib. (-TS)   =      -0.00503374 Ry
     internal energy E=F+TS    =     -66.16286021 Ry

     The total energy is F=E-TS. E is the sum of the following terms:
     one-electron contribution =      16.25734629 Ry
     hartree contribution      =       4.27218202 Ry
     xc contribution           =     -24.80170177 Ry
     ewald contribution        =     -61.89068675 Ry

     convergence has been achieved in  10 iterations

     Writing all to output data dir ./Ptbulk.save/
 
     init_run     :     15.01s CPU     15.11s WALL (       1 calls)
     electrons    :     10.55s CPU     11.21s WALL (       1 calls)

     Called by init_run:
     wfcinit      :      0.10s CPU      0.10s WALL (       1 calls)
     potinit      :     13.62s CPU     13.65s WALL (       1 calls)
     hinit0       :      1.24s CPU      1.31s WALL (       1 calls)

     Called by electrons:
     c_bands      :      5.03s CPU      5.06s WALL (      11 calls)
     sum_band     :      0.78s CPU      0.77s WALL (      11 calls)
     v_of_rho     :     16.84s CPU     17.10s WALL (      11 calls)
     newd         :      0.26s CPU      0.23s WALL (      11 calls)
     mix_rho      :      0.09s CPU      0.10s WALL (      11 calls)
     vdW_kernel   :     11.99s CPU     11.99s WALL (       1 calls)

     Called by c_bands:
     init_us_2    :      0.08s CPU      0.08s WALL (      46 calls)
     init_us_2:cp :      0.07s CPU      0.08s WALL (      46 calls)
     ccgdiagg     :      3.63s CPU      3.65s WALL (      22 calls)
     wfcrot       :      0.88s CPU      0.87s WALL (      20 calls)

     Called by *cgdiagg:
     h_psi        :      4.04s CPU      4.05s WALL (     735 calls)
     s_psi        :      0.17s CPU      0.16s WALL (    1450 calls)

     Called by h_psi:
     h_psi:calbec :      0.16s CPU      0.13s WALL (     735 calls)
     vloc_psi     :      3.79s CPU      3.81s WALL (     735 calls)
     add_vuspsi   :      0.09s CPU      0.09s WALL (     735 calls)
     hs_1psi      :      3.30s CPU      3.32s WALL (     715 calls)
     s_1psi       :      0.18s CPU      0.15s WALL (     715 calls)

     General routines
     calbec       :      0.27s CPU      0.22s WALL (    1472 calls)
     fft          :      1.31s CPU      1.33s WALL (     672 calls)
     ffts         :      0.02s CPU      0.02s WALL (      11 calls)
     fftw         :      3.76s CPU      3.74s WALL (    1988 calls)
 
     Parallel routines
 
     PWSCF        :     25.77s CPU     28.45s WALL

 
   This run was terminated on:  10:20:23   7Oct2022            

=------------------------------------------------------------------------------=
   JOB DONE.
=------------------------------------------------------------------------------=
