
     Program PWSCF v.7.1 starts on 10Oct2022 at  9:47: 6 

     This program is part of the open-source Quantum ESPRESSO suite
     for quantum simulation of materials; please cite
         "P. Giannozzi et al., J. Phys.:Condens. Matter 21 395502 (2009);
         "P. Giannozzi et al., J. Phys.:Condens. Matter 29 465901 (2017);
         "P. Giannozzi et al., J. Chem. Phys. 152 154105 (2020);
          URL http://www.quantum-espresso.org", 
     in publications or presentations arising from this work. More details at
     http://www.quantum-espresso.org/quote

     Parallel version (MPI), running on    24 processors

     MPI processes distributed on     3 nodes
     74819 MiB available memory on the printing compute node when the environment starts
 
     Waiting for input...
     Reading input from standard input

     Current dimensions of program PWSCF are:
     Max number of different atomic species (ntypx) = 10
     Max number of k-points (npk) =  40000
     Max angular momentum in pseudopotentials (lmaxx) =  4
     file Pt.pbe-n-rrkjus_psl.1.0.0.UPF: wavefunction(s)  6S renormalized

     **************************************************************************
     Initializing libbeef V0.1.2 with the BEEF-vdW functional.
     Citation: Wellendorff et al., PRB 85, 235149 (2012).
     **************************************************************************


     IMPORTANT: XC functional enforced from input :
     Exchange-correlation= BEEF-VDW
                           (   1   4  43  14   2   0   0)
     Any further DFT definition will be discarded
     Please, verify this is what you really want

 
     K-points division:     npool     =      24
     Subspace diagonalization in iterative solution of the eigenvalue problem:
     a serial algorithm will be used

 
     G-vector sticks info
     --------------------
     sticks:   dense  smooth     PW     G-vecs:    dense   smooth      PW
     Sum        1345    1345    385                32647    32647    5065
 
     Using Slab Decomposition
 


     bravais-lattice index     =            2
     lattice parameter (alat)  =       7.5720  a.u.
     unit-cell volume          =     108.5355 (a.u.)^3
     number of atoms/cell      =            1
     number of atomic types    =            1
     number of electrons       =        10.00
     number of Kohn-Sham states=            9
     kinetic-energy cutoff     =     170.0000  Ry
     charge density cutoff     =     680.0000  Ry
     scf convergence threshold =      1.0E-09
     mixing beta               =       0.7000
     number of iterations used =            8  plain     mixing
     Exchange-correlation= BEEF-VDW
                           (   1   4  43  14   2   0   0)

     celldm(1)=   7.572000  celldm(2)=   0.000000  celldm(3)=   0.000000
     celldm(4)=   0.000000  celldm(5)=   0.000000  celldm(6)=   0.000000

     crystal axes: (cart. coord. in units of alat)
               a(1) = (  -0.500000   0.000000   0.500000 )  
               a(2) = (   0.000000   0.500000   0.500000 )  
               a(3) = (  -0.500000   0.500000   0.000000 )  

     reciprocal axes: (cart. coord. in units 2 pi/alat)
               b(1) = ( -1.000000 -1.000000  1.000000 )  
               b(2) = (  1.000000  1.000000  1.000000 )  
               b(3) = ( -1.000000  1.000000 -1.000000 )  


     PseudoPot. # 1 for Pt read from file:
     ./pseudo/Pt.pbe-n-rrkjus_psl.1.0.0.UPF
     MD5 check sum: 6bc887cfe28d63a5fc1f72d35a7d3ef7
     Pseudo is Ultrasoft + core correction, Zval = 10.0
     Generated using &quot;atomic&quot; code by A. Dal Corso  v.6.3
     Using radial grid of 1277 points,  6 beta functions with: 
                l(1) =   0
                l(2) =   0
                l(3) =   1
                l(4) =   1
                l(5) =   2
                l(6) =   2
     Q(r) pseudized with 0 coefficients 


     atomic species   valence    mass     pseudopotential
        Pt            10.00   195.07800     Pt( 1.00)

     48 Sym. Ops., with inversion, found



   Cartesian axes

     site n.     atom                  positions (alat units)
         1           Pt  tau(   1) = (   0.0000000   0.0000000   0.0000000  )

     number of k points=    29  Gaussian smearing, width (Ry)=  0.0200
                       cart. coord. in units 2pi/alat
        k(    1) = (   0.0000000   0.0000000   0.0000000), wk =   0.0039062
        k(    2) = (  -0.1250000   0.1250000  -0.1250000), wk =   0.0312500
        k(    3) = (  -0.2500000   0.2500000  -0.2500000), wk =   0.0312500
        k(    4) = (  -0.3750000   0.3750000  -0.3750000), wk =   0.0312500
        k(    5) = (   0.5000000  -0.5000000   0.5000000), wk =   0.0156250
        k(    6) = (   0.0000000   0.2500000   0.0000000), wk =   0.0234375
        k(    7) = (  -0.1250000   0.3750000  -0.1250000), wk =   0.0937500
        k(    8) = (  -0.2500000   0.5000000  -0.2500000), wk =   0.0937500
        k(    9) = (   0.6250000  -0.3750000   0.6250000), wk =   0.0937500
        k(   10) = (   0.5000000  -0.2500000   0.5000000), wk =   0.0937500
        k(   11) = (   0.3750000  -0.1250000   0.3750000), wk =   0.0937500
        k(   12) = (   0.2500000   0.0000000   0.2500000), wk =   0.0468750
        k(   13) = (   0.0000000   0.5000000   0.0000000), wk =   0.0234375
        k(   14) = (  -0.1250000   0.6250000  -0.1250000), wk =   0.0937500
        k(   15) = (   0.7500000  -0.2500000   0.7500000), wk =   0.0937500
        k(   16) = (   0.6250000  -0.1250000   0.6250000), wk =   0.0937500
        k(   17) = (   0.5000000   0.0000000   0.5000000), wk =   0.0468750
        k(   18) = (   0.0000000   0.7500000   0.0000000), wk =   0.0234375
        k(   19) = (   0.8750000  -0.1250000   0.8750000), wk =   0.0937500
        k(   20) = (   0.7500000   0.0000000   0.7500000), wk =   0.0468750
        k(   21) = (   0.0000000  -1.0000000   0.0000000), wk =   0.0117188
        k(   22) = (  -0.2500000   0.5000000   0.0000000), wk =   0.0937500
        k(   23) = (   0.6250000  -0.3750000   0.8750000), wk =   0.1875000
        k(   24) = (   0.5000000  -0.2500000   0.7500000), wk =   0.0937500
        k(   25) = (   0.7500000  -0.2500000   1.0000000), wk =   0.0937500
        k(   26) = (   0.6250000  -0.1250000   0.8750000), wk =   0.1875000
        k(   27) = (   0.5000000   0.0000000   0.7500000), wk =   0.0937500
        k(   28) = (  -0.2500000  -1.0000000   0.0000000), wk =   0.0468750
        k(   29) = (  -0.5000000  -1.0000000   0.0000000), wk =   0.0234375

     Dense  grid:    32647 G-vectors     FFT dimensions: (  45,  45,  45)

     Estimated max dynamical RAM per process >      29.07 MB

     Estimated total dynamical RAM >     514.39 MB

     Initial potential from superposition of free atoms

     starting charge       9.9998, renormalised to      10.0000


     %%%%%%%%%%%%%%%%%%%%%%%%%%%%%%%%%%%%%%%%%%%%%%%%%%%%%%%%%%%%%%%%%%%%%%%%
     %                                                                      %
     % You are using vdW-DF, which was implemented by the Thonhauser group. %
     % Please cite the following two papers that made this development      %
     % possible and the two reviews that describe the various versions:     %
     %                                                                      %
     %   T. Thonhauser et al., PRL 115, 136402 (2015).                      %
     %   T. Thonhauser et al., PRB 76, 125112 (2007).                       %
     %   K. Berland et al., Rep. Prog. Phys. 78, 066501 (2015).             %
     %   D.C. Langreth et al., J. Phys.: Condens. Matter 21, 084203 (2009). %
     %                                                                      %
     % If you are calculating stress with vdW-DF, please also cite:         %
     %                                                                      %
     %   R. Sabatini et al., J. Phys.: Condens. Matter 24, 424209 (2012).   %
     %                                                                      %
     %%%%%%%%%%%%%%%%%%%%%%%%%%%%%%%%%%%%%%%%%%%%%%%%%%%%%%%%%%%%%%%%%%%%%%%%

     %%%%%%%%%%%%%%%%%%%%%%%%%%%%%%%%%%%%%%%%%%%%%%%%%%%%%%%%%%%%%%%%%%%%%%%%
     %                                                                      %
     %  vdW-DF NEWS:                                                        %
     %                                                                      %
     %  * vdW-DF3 is now available. DOI: 10.1021/acs.jctc.0c00471           %
     %    use with input_dft = 'vdW-DF3-opt1' or 'vdW-DF3-opt2'             %
     %                                                                      %
     %  * Unscreened and range-separated vdW-DF hybrid functionals          %
     %    DOI: 10.1063/1.4986522 and 10.1088/1361-648X/ac2ad2               %
     %    use with input_dft = 'vdW-DF-cx0' (etc) and 'vdW-DF-ahcx'         %
     %                                                                      %
     %%%%%%%%%%%%%%%%%%%%%%%%%%%%%%%%%%%%%%%%%%%%%%%%%%%%%%%%%%%%%%%%%%%%%%%%


     Starting wfcs are    9 randomized atomic wfcs

     total cpu time spent up to now is       15.5 secs

     Self-consistent Calculation

     iteration #  1     ecut=   170.00 Ry     beta= 0.70
     CG style diagonalization
     ethr =  1.00E-02,  avg # of iterations =  3.6

     Threshold (ethr) on eigenvalues was too large:
     Diagonalizing with lowered threshold

     CG style diagonalization
     ethr =  1.12E-04,  avg # of iterations =  5.9

     total cpu time spent up to now is       17.4 secs

     total energy              =     -66.16453335 Ry
     estimated scf accuracy    <       0.03211680 Ry

     iteration #  2     ecut=   170.00 Ry     beta= 0.70
     CG style diagonalization
     ethr =  3.21E-04,  avg # of iterations =  3.2

     total cpu time spent up to now is       18.3 secs

     total energy              =     -66.17057899 Ry
     estimated scf accuracy    <       0.00176137 Ry

     iteration #  3     ecut=   170.00 Ry     beta= 0.70
     CG style diagonalization
     ethr =  1.76E-05,  avg # of iterations =  4.7

     total cpu time spent up to now is       19.5 secs

     total energy              =     -66.17160447 Ry
     estimated scf accuracy    <       0.00013617 Ry

     iteration #  4     ecut=   170.00 Ry     beta= 0.70
     CG style diagonalization
     ethr =  1.36E-06,  avg # of iterations =  4.8

     total cpu time spent up to now is       20.6 secs

     total energy              =     -66.17167272 Ry
     estimated scf accuracy    <       0.00001445 Ry

     iteration #  5     ecut=   170.00 Ry     beta= 0.70
     CG style diagonalization
     ethr =  1.44E-07,  avg # of iterations =  4.6

     total cpu time spent up to now is       21.7 secs

     total energy              =     -66.17169013 Ry
     estimated scf accuracy    <       0.00000759 Ry

     iteration #  6     ecut=   170.00 Ry     beta= 0.70
     CG style diagonalization
     ethr =  7.59E-08,  avg # of iterations =  3.2

     total cpu time spent up to now is       22.6 secs

     total energy              =     -66.17169108 Ry
     estimated scf accuracy    <       0.00000063 Ry

     iteration #  7     ecut=   170.00 Ry     beta= 0.70
     CG style diagonalization
     ethr =  6.32E-09,  avg # of iterations =  4.2

     total cpu time spent up to now is       23.7 secs

     total energy              =     -66.17169152 Ry
     estimated scf accuracy    <          4.8E-09 Ry

     iteration #  8     ecut=   170.00 Ry     beta= 0.70
     CG style diagonalization
     ethr =  4.84E-11,  avg # of iterations =  6.0

     total cpu time spent up to now is       25.0 secs

     total energy              =     -66.17169157 Ry
     estimated scf accuracy    <          5.6E-09 Ry

     iteration #  9     ecut=   170.00 Ry     beta= 0.70
     CG style diagonalization
     ethr =  4.84E-11,  avg # of iterations =  3.5

     total cpu time spent up to now is       25.9 secs

     End of self-consistent calculation

          k = 0.0000 0.0000 0.0000 (  4015 PWs)   bands (ev):

     6.5795  12.4781  12.4781  12.4781  14.3540  14.3540  31.7306  36.2579
    36.2579

          k =-0.1250 0.1250-0.1250 (  4047 PWs)   bands (ev):

     7.1513  12.2741  12.6764  12.6764  14.2733  14.2733  32.4126  33.5226
    36.9895

          k =-0.2500 0.2500-0.2500 (  4050 PWs)   bands (ev):

     8.5054  12.2138  12.8095  12.8095  14.5393  14.5393  29.0985  33.0192
    38.1730

          k =-0.3750 0.3750-0.3750 (  4062 PWs)   bands (ev):

     9.2626  12.5552  12.5552  13.8375  15.3856  15.3856  24.3322  31.7272
    36.3054

          k = 0.5000-0.5000 0.5000 (  4092 PWs)   bands (ev):

     9.3081  12.4128  12.4128  15.8454  15.8454  15.8774  21.3195  31.1223
    35.1493

          k = 0.0000 0.2500 0.0000 (  4047 PWs)   bands (ev):

     7.3461  12.0311  12.8681  12.8681  13.8716  14.5472  32.7784  34.5451
    35.7582

          k =-0.1250 0.3750-0.1250 (  4042 PWs)   bands (ev):

     8.5009  11.6782  12.9289  13.1895  14.0153  14.8477  30.9808  33.6972
    35.1041

          k =-0.2500 0.5000-0.2500 (  4062 PWs)   bands (ev):

     9.5910  12.1983  12.4229  13.0540  15.5423  15.5505  26.0841  32.6030
    34.1970

          k = 0.6250-0.3750 0.6250 (  4053 PWs)   bands (ev):

     9.7389  12.1024  12.8114  13.6874  15.8769  17.8603  21.7344  31.6020
    34.0294

          k = 0.5000-0.2500 0.5000 (  4051 PWs)   bands (ev):

     9.7681  12.2063  12.8031  13.4845  15.2642  17.3390  23.0814  31.5208
    33.2661

          k = 0.3750-0.1250 0.3750 (  4056 PWs)   bands (ev):

     9.3917  11.9894  12.6420  13.0718  14.1862  15.8214  27.7593  32.2121
    34.6414

          k = 0.2500 0.0000 0.2500 (  4043 PWs)   bands (ev):

     8.0332  11.9421  12.8772  13.0050  13.8348  14.7468  31.7672  32.9305
    35.7029

          k = 0.0000 0.5000 0.0000 (  4064 PWs)   bands (ev):

     9.1709  11.0805  13.2125  13.9676  13.9676  15.0364  32.7784  32.7784
    33.5988

          k =-0.1250 0.6250-0.1250 (  4059 PWs)   bands (ev):

     9.9827  10.8517  12.9352  14.1783  15.6264  15.6895  28.1111  31.3346
    31.8033

          k = 0.7500-0.2500 0.7500 (  4069 PWs)   bands (ev):

    10.2886  11.3347  12.7688  13.8963  15.9590  18.8184  23.2011  29.6099
    31.3784

          k = 0.6250-0.1250 0.6250 (  4064 PWs)   bands (ev):

    10.6205  11.6564  12.6374  13.6676  15.3172  19.6775  22.8116  27.9137
    33.3693

          k = 0.5000 0.0000 0.5000 (  4069 PWs)   bands (ev):

    10.6876  11.7540  12.1135  13.5638  14.3209  17.6021  26.4620  28.3617
    34.1147

          k = 0.0000 0.7500 0.0000 (  4064 PWs)   bands (ev):

     9.7645  10.2625  15.1872  15.4366  15.4366  15.5626  28.3346  29.1448
    29.1448

          k = 0.8750-0.1250 0.8750 (  4070 PWs)   bands (ev):

     9.8604  10.2885  14.5655  15.2269  16.0770  18.7249  24.5956  27.3246
    28.7007

          k = 0.7500 0.0000 0.7500 (  4065 PWs)   bands (ev):

    10.2801  10.9961  13.3742  14.6630  15.6836  21.6437  22.4215  25.5298
    30.4476

          k = 0.0000-1.0000 0.0000 (  4088 PWs)   bands (ev):

     9.5415   9.9531  15.7931  16.2533  16.2533  18.0279  24.1940  27.5081
    27.5082

          k =-0.2500 0.5000 0.0000 (  4059 PWs)   bands (ev):

     9.7070  11.3232  12.4781  13.9734  14.0407  15.8661  29.2443  31.1649
    34.0192

          k = 0.6250-0.3750 0.8750 (  4068 PWs)   bands (ev):

    10.4624  11.7781  12.0395  13.7031  15.1934  17.6943  24.9385  29.9594
    32.1792

          k = 0.5000-0.2500 0.7500 (  4072 PWs)   bands (ev):

    10.4785  11.5822  12.8459  13.4616  15.6611  20.2503  21.1502  30.2633
    30.9655

          k = 0.7500-0.2500 1.0000 (  4069 PWs)   bands (ev):

    10.3411  10.6813  12.9691  15.0160  15.4268  17.8989  26.2370  28.0925
    29.7791

          k = 0.6250-0.1250 0.8750 (  4068 PWs)   bands (ev):

    10.6431  11.1680  12.5978  14.3781  15.8915  21.0439  22.8835  26.7720
    29.0267

          k = 0.5000 0.0000 0.7500 (  4078 PWs)   bands (ev):

    11.1776  11.4837  11.8591  14.1188  15.4358  19.8869  25.1065  25.4697
    30.6161

          k =-0.2500-1.0000 0.0000 (  4062 PWs)   bands (ev):

    10.0690  10.4287  14.0419  15.0716  16.2547  20.6853  23.3619  26.5855
    27.5165

          k =-0.5000-1.0000 0.0000 (  4056 PWs)   bands (ev):

    10.8253  11.8270  11.8270  14.0896  16.2561  22.7982  24.0293  24.0293
    27.4669

     the Fermi energy is    15.7985 ev

!    total energy              =     -66.17169157 Ry
     estimated scf accuracy    <          3.4E-10 Ry
     smearing contrib. (-TS)   =      -0.00560812 Ry
     internal energy E=F+TS    =     -66.16608345 Ry

     The total energy is F=E-TS. E is the sum of the following terms:
     one-electron contribution =      14.44257387 Ry
     hartree contribution      =       4.68008220 Ry
     xc contribution           =     -24.73852723 Ry
     ewald contribution        =     -60.55021228 Ry

     convergence has been achieved in   9 iterations

     Writing all to output data dir ./Ptbulk.save/
 
     init_run     :     14.85s CPU     15.01s WALL (       1 calls)
     electrons    :     10.21s CPU     10.67s WALL (       1 calls)

     Called by init_run:
     wfcinit      :      0.10s CPU      0.10s WALL (       1 calls)
     potinit      :     13.36s CPU     13.40s WALL (       1 calls)
     hinit0       :      1.34s CPU      1.46s WALL (       1 calls)

     Called by electrons:
     c_bands      :      5.00s CPU      5.02s WALL (      10 calls)
     sum_band     :      0.76s CPU      0.76s WALL (      10 calls)
     v_of_rho     :     16.51s CPU     16.77s WALL (      10 calls)
     newd         :      0.25s CPU      0.26s WALL (      10 calls)
     mix_rho      :      0.08s CPU      0.08s WALL (      10 calls)
     vdW_kernel   :     11.96s CPU     11.96s WALL (       1 calls)

     Called by c_bands:
     init_us_2    :      0.08s CPU      0.08s WALL (      42 calls)
     init_us_2:cp :      0.08s CPU      0.08s WALL (      42 calls)
     ccgdiagg     :      3.57s CPU      3.58s WALL (      20 calls)
     wfcrot       :      0.79s CPU      0.80s WALL (      18 calls)

     Called by *cgdiagg:
     h_psi        :      3.90s CPU      3.90s WALL (     670 calls)
     s_psi        :      0.16s CPU      0.16s WALL (    1322 calls)

     Called by h_psi:
     h_psi:calbec :      0.16s CPU      0.17s WALL (     670 calls)
     vloc_psi     :      3.62s CPU      3.63s WALL (     670 calls)
     add_vuspsi   :      0.10s CPU      0.09s WALL (     670 calls)
     hs_1psi      :      3.24s CPU      3.24s WALL (     652 calls)
     s_1psi       :      0.16s CPU      0.15s WALL (     652 calls)

     General routines
     calbec       :      0.26s CPU      0.26s WALL (    1342 calls)
     fft          :      1.24s CPU      1.24s WALL (     611 calls)
     ffts         :      0.02s CPU      0.02s WALL (      10 calls)
     fftw         :      3.49s CPU      3.49s WALL (    1808 calls)
 
     Parallel routines
 
     PWSCF        :     25.28s CPU     27.63s WALL

 
   This run was terminated on:   9:47:34  10Oct2022            

=------------------------------------------------------------------------------=
   JOB DONE.
=------------------------------------------------------------------------------=
