
     Program PWSCF v.7.1 starts on  7Oct2022 at 10:36:50 

     This program is part of the open-source Quantum ESPRESSO suite
     for quantum simulation of materials; please cite
         "P. Giannozzi et al., J. Phys.:Condens. Matter 21 395502 (2009);
         "P. Giannozzi et al., J. Phys.:Condens. Matter 29 465901 (2017);
         "P. Giannozzi et al., J. Chem. Phys. 152 154105 (2020);
          URL http://www.quantum-espresso.org", 
     in publications or presentations arising from this work. More details at
     http://www.quantum-espresso.org/quote

     Parallel version (MPI), running on    24 processors

     MPI processes distributed on     3 nodes
     73911 MiB available memory on the printing compute node when the environment starts
 
     Waiting for input...
     Reading input from standard input

     Current dimensions of program PWSCF are:
     Max number of different atomic species (ntypx) = 10
     Max number of k-points (npk) =  40000
     Max angular momentum in pseudopotentials (lmaxx) =  4
     file Pt.pbe-n-rrkjus_psl.1.0.0.UPF: wavefunction(s)  6S renormalized

     **************************************************************************
     Initializing libbeef V0.1.2 with the BEEF-vdW functional.
     Citation: Wellendorff et al., PRB 85, 235149 (2012).
     **************************************************************************


     IMPORTANT: XC functional enforced from input :
     Exchange-correlation= BEEF-VDW
                           (   1   4  43  14   2   0   0)
     Any further DFT definition will be discarded
     Please, verify this is what you really want

 
     K-points division:     npool     =      24
     Subspace diagonalization in iterative solution of the eigenvalue problem:
     a serial algorithm will be used

 
     G-vector sticks info
     --------------------
     sticks:   dense  smooth     PW     G-vecs:    dense   smooth      PW
     Sum        1261    1261    367                29123    29123    4645
 
     Using Slab Decomposition
 


     bravais-lattice index     =            2
     lattice parameter (alat)  =       7.3020  a.u.
     unit-cell volume          =      97.3342 (a.u.)^3
     number of atoms/cell      =            1
     number of atomic types    =            1
     number of electrons       =        10.00
     number of Kohn-Sham states=            9
     kinetic-energy cutoff     =     170.0000  Ry
     charge density cutoff     =     680.0000  Ry
     scf convergence threshold =      1.0E-09
     mixing beta               =       0.7000
     number of iterations used =            8  plain     mixing
     Exchange-correlation= BEEF-VDW
                           (   1   4  43  14   2   0   0)

     celldm(1)=   7.302000  celldm(2)=   0.000000  celldm(3)=   0.000000
     celldm(4)=   0.000000  celldm(5)=   0.000000  celldm(6)=   0.000000

     crystal axes: (cart. coord. in units of alat)
               a(1) = (  -0.500000   0.000000   0.500000 )  
               a(2) = (   0.000000   0.500000   0.500000 )  
               a(3) = (  -0.500000   0.500000   0.000000 )  

     reciprocal axes: (cart. coord. in units 2 pi/alat)
               b(1) = ( -1.000000 -1.000000  1.000000 )  
               b(2) = (  1.000000  1.000000  1.000000 )  
               b(3) = ( -1.000000  1.000000 -1.000000 )  


     PseudoPot. # 1 for Pt read from file:
     ./pseudo/Pt.pbe-n-rrkjus_psl.1.0.0.UPF
     MD5 check sum: 6bc887cfe28d63a5fc1f72d35a7d3ef7
     Pseudo is Ultrasoft + core correction, Zval = 10.0
     Generated using &quot;atomic&quot; code by A. Dal Corso  v.6.3
     Using radial grid of 1277 points,  6 beta functions with: 
                l(1) =   0
                l(2) =   0
                l(3) =   1
                l(4) =   1
                l(5) =   2
                l(6) =   2
     Q(r) pseudized with 0 coefficients 


     atomic species   valence    mass     pseudopotential
        Pt            10.00   195.07800     Pt( 1.00)

     48 Sym. Ops., with inversion, found



   Cartesian axes

     site n.     atom                  positions (alat units)
         1           Pt  tau(   1) = (   0.0000000   0.0000000   0.0000000  )

     number of k points=    29  Gaussian smearing, width (Ry)=  0.0200
                       cart. coord. in units 2pi/alat
        k(    1) = (   0.0000000   0.0000000   0.0000000), wk =   0.0039062
        k(    2) = (  -0.1250000   0.1250000  -0.1250000), wk =   0.0312500
        k(    3) = (  -0.2500000   0.2500000  -0.2500000), wk =   0.0312500
        k(    4) = (  -0.3750000   0.3750000  -0.3750000), wk =   0.0312500
        k(    5) = (   0.5000000  -0.5000000   0.5000000), wk =   0.0156250
        k(    6) = (   0.0000000   0.2500000   0.0000000), wk =   0.0234375
        k(    7) = (  -0.1250000   0.3750000  -0.1250000), wk =   0.0937500
        k(    8) = (  -0.2500000   0.5000000  -0.2500000), wk =   0.0937500
        k(    9) = (   0.6250000  -0.3750000   0.6250000), wk =   0.0937500
        k(   10) = (   0.5000000  -0.2500000   0.5000000), wk =   0.0937500
        k(   11) = (   0.3750000  -0.1250000   0.3750000), wk =   0.0937500
        k(   12) = (   0.2500000   0.0000000   0.2500000), wk =   0.0468750
        k(   13) = (   0.0000000   0.5000000   0.0000000), wk =   0.0234375
        k(   14) = (  -0.1250000   0.6250000  -0.1250000), wk =   0.0937500
        k(   15) = (   0.7500000  -0.2500000   0.7500000), wk =   0.0937500
        k(   16) = (   0.6250000  -0.1250000   0.6250000), wk =   0.0937500
        k(   17) = (   0.5000000   0.0000000   0.5000000), wk =   0.0468750
        k(   18) = (   0.0000000   0.7500000   0.0000000), wk =   0.0234375
        k(   19) = (   0.8750000  -0.1250000   0.8750000), wk =   0.0937500
        k(   20) = (   0.7500000   0.0000000   0.7500000), wk =   0.0468750
        k(   21) = (   0.0000000  -1.0000000   0.0000000), wk =   0.0117188
        k(   22) = (  -0.2500000   0.5000000   0.0000000), wk =   0.0937500
        k(   23) = (   0.6250000  -0.3750000   0.8750000), wk =   0.1875000
        k(   24) = (   0.5000000  -0.2500000   0.7500000), wk =   0.0937500
        k(   25) = (   0.7500000  -0.2500000   1.0000000), wk =   0.0937500
        k(   26) = (   0.6250000  -0.1250000   0.8750000), wk =   0.1875000
        k(   27) = (   0.5000000   0.0000000   0.7500000), wk =   0.0937500
        k(   28) = (  -0.2500000  -1.0000000   0.0000000), wk =   0.0468750
        k(   29) = (  -0.5000000  -1.0000000   0.0000000), wk =   0.0234375

     Dense  grid:    29123 G-vectors     FFT dimensions: (  45,  45,  45)

     Estimated max dynamical RAM per process >      26.85 MB

     Estimated total dynamical RAM >     480.79 MB

     Initial potential from superposition of free atoms

     starting charge       9.9998, renormalised to      10.0000


     %%%%%%%%%%%%%%%%%%%%%%%%%%%%%%%%%%%%%%%%%%%%%%%%%%%%%%%%%%%%%%%%%%%%%%%%
     %                                                                      %
     % You are using vdW-DF, which was implemented by the Thonhauser group. %
     % Please cite the following two papers that made this development      %
     % possible and the two reviews that describe the various versions:     %
     %                                                                      %
     %   T. Thonhauser et al., PRL 115, 136402 (2015).                      %
     %   T. Thonhauser et al., PRB 76, 125112 (2007).                       %
     %   K. Berland et al., Rep. Prog. Phys. 78, 066501 (2015).             %
     %   D.C. Langreth et al., J. Phys.: Condens. Matter 21, 084203 (2009). %
     %                                                                      %
     % If you are calculating stress with vdW-DF, please also cite:         %
     %                                                                      %
     %   R. Sabatini et al., J. Phys.: Condens. Matter 24, 424209 (2012).   %
     %                                                                      %
     %%%%%%%%%%%%%%%%%%%%%%%%%%%%%%%%%%%%%%%%%%%%%%%%%%%%%%%%%%%%%%%%%%%%%%%%

     %%%%%%%%%%%%%%%%%%%%%%%%%%%%%%%%%%%%%%%%%%%%%%%%%%%%%%%%%%%%%%%%%%%%%%%%
     %                                                                      %
     %  vdW-DF NEWS:                                                        %
     %                                                                      %
     %  * vdW-DF3 is now available. DOI: 10.1021/acs.jctc.0c00471           %
     %    use with input_dft = 'vdW-DF3-opt1' or 'vdW-DF3-opt2'             %
     %                                                                      %
     %  * Unscreened and range-separated vdW-DF hybrid functionals          %
     %    DOI: 10.1063/1.4986522 and 10.1088/1361-648X/ac2ad2               %
     %    use with input_dft = 'vdW-DF-cx0' (etc) and 'vdW-DF-ahcx'         %
     %                                                                      %
     %%%%%%%%%%%%%%%%%%%%%%%%%%%%%%%%%%%%%%%%%%%%%%%%%%%%%%%%%%%%%%%%%%%%%%%%


     Starting wfcs are    9 randomized atomic wfcs

     total cpu time spent up to now is       14.8 secs

     Self-consistent Calculation

     iteration #  1     ecut=   170.00 Ry     beta= 0.70
     CG style diagonalization
     ethr =  1.00E-02,  avg # of iterations =  3.9

     Threshold (ethr) on eigenvalues was too large:
     Diagonalizing with lowered threshold

     CG style diagonalization
     ethr =  9.37E-05,  avg # of iterations =  6.2

     total cpu time spent up to now is       16.6 secs

     total energy              =     -66.15578502 Ry
     estimated scf accuracy    <       0.02951892 Ry

     iteration #  2     ecut=   170.00 Ry     beta= 0.70
     CG style diagonalization
     ethr =  2.95E-04,  avg # of iterations =  3.0

     total cpu time spent up to now is       17.4 secs

     total energy              =     -66.15993592 Ry
     estimated scf accuracy    <       0.00057611 Ry

     iteration #  3     ecut=   170.00 Ry     beta= 0.70
     CG style diagonalization
     c_bands:  1 eigenvalues not converged
     ethr =  5.76E-06,  avg # of iterations =  6.3

     total cpu time spent up to now is       18.7 secs

     total energy              =     -66.16070279 Ry
     estimated scf accuracy    <       0.00025208 Ry

     iteration #  4     ecut=   170.00 Ry     beta= 0.70
     CG style diagonalization
     ethr =  2.52E-06,  avg # of iterations =  4.3

     total cpu time spent up to now is       19.7 secs

     total energy              =     -66.16065692 Ry
     estimated scf accuracy    <       0.00039051 Ry

     iteration #  5     ecut=   170.00 Ry     beta= 0.70
     CG style diagonalization
     ethr =  2.52E-06,  avg # of iterations =  3.5

     total cpu time spent up to now is       20.6 secs

     total energy              =     -66.16074174 Ry
     estimated scf accuracy    <       0.00000022 Ry

     iteration #  6     ecut=   170.00 Ry     beta= 0.70
     CG style diagonalization
     ethr =  2.18E-09,  avg # of iterations =  7.0

     total cpu time spent up to now is       21.8 secs

     total energy              =     -66.16074754 Ry
     estimated scf accuracy    <       0.00000088 Ry

     iteration #  7     ecut=   170.00 Ry     beta= 0.70
     CG style diagonalization
     ethr =  2.18E-09,  avg # of iterations =  3.0

     total cpu time spent up to now is       22.7 secs

     total energy              =     -66.16074708 Ry
     estimated scf accuracy    <       0.00000070 Ry

     iteration #  8     ecut=   170.00 Ry     beta= 0.70
     CG style diagonalization
     ethr =  2.18E-09,  avg # of iterations =  3.7

     total cpu time spent up to now is       23.6 secs

     total energy              =     -66.16074727 Ry
     estimated scf accuracy    <       0.00000002 Ry

     iteration #  9     ecut=   170.00 Ry     beta= 0.70
     CG style diagonalization
     ethr =  2.11E-10,  avg # of iterations =  4.1

     total cpu time spent up to now is       24.5 secs

     End of self-consistent calculation

          k = 0.0000 0.0000 0.0000 (  3695 PWs)   bands (ev):

     8.0870  14.5371  14.5371  14.5371  16.7944  16.7944  34.3365  39.5284
    39.5284

          k =-0.1250 0.1250-0.1250 (  3644 PWs)   bands (ev):

     8.7212  14.2863  14.7707  14.7707  16.6893  16.6893  35.2394  36.7086
    40.4492

          k =-0.2500 0.2500-0.2500 (  3647 PWs)   bands (ev):

    10.1766  14.2140  14.9254  14.9254  16.9974  16.9974  32.5793  36.0259
    42.3183

          k =-0.3750 0.3750-0.3750 (  3648 PWs)   bands (ev):

    10.8885  14.6193  14.6193  16.0476  18.0226  18.0226  27.8961  34.4653
    40.2383

          k = 0.5000-0.5000 0.5000 (  3648 PWs)   bands (ev):

    10.8984  14.4492  14.4492  18.1617  18.5888  18.5888  24.8805  33.7352
    38.8469

          k = 0.0000 0.2500 0.0000 (  3651 PWs)   bands (ev):

     8.9375  13.9942  14.9983  14.9983  16.1961  17.0252  35.6271  37.7277
    39.3275

          k =-0.1250 0.3750-0.1250 (  3636 PWs)   bands (ev):

    10.1960  13.5724  15.0580  15.3785  16.3600  17.3802  34.4752  36.8522
    39.0146

          k =-0.2500 0.5000-0.2500 (  3654 PWs)   bands (ev):

    11.2903  14.1903  14.4585  15.2132  18.1500  18.2287  29.6590  35.6058
    38.1067

          k = 0.6250-0.3750 0.6250 (  3650 PWs)   bands (ev):

    11.3897  14.0638  14.9210  15.9064  18.6273  20.6696  25.2110  34.5137
    37.7904

          k = 0.5000-0.2500 0.5000 (  3648 PWs)   bands (ev):

    11.4374  14.1907  14.9097  15.6659  17.8709  20.2168  26.5861  34.6251
    36.8198

          k = 0.3750-0.1250 0.3750 (  3647 PWs)   bands (ev):

    11.1263  13.9532  14.7089  15.2316  16.5646  18.5342  31.3383  35.6984
    38.2059

          k = 0.2500 0.0000 0.2500 (  3665 PWs)   bands (ev):

     9.6915  13.8861  15.0042  15.1582  16.1492  17.2555  35.0722  36.2232
    39.1845

          k = 0.0000 0.5000 0.0000 (  3615 PWs)   bands (ev):

    10.8972  12.8607  15.3945  16.3037  16.3037  17.6129  36.5704  36.5705
    36.8994

          k =-0.1250 0.6250-0.1250 (  3626 PWs)   bands (ev):

    11.6933  12.5998  15.0741  16.5556  18.3172  18.3246  31.7159  35.0042
    35.5278

          k = 0.7500-0.2500 0.7500 (  3637 PWs)   bands (ev):

    11.9749  13.1578  14.8758  16.2131  18.7279  21.8439  26.5091  33.3503
    35.0280

          k = 0.6250-0.1250 0.6250 (  3655 PWs)   bands (ev):

    12.3715  13.5329  14.7054  15.9357  17.9343  22.7611  26.2432  31.5888
    37.2753

          k = 0.5000 0.0000 0.5000 (  3651 PWs)   bands (ev):

    12.5338  13.6696  14.0656  15.8105  16.7269  20.5921  29.9794  32.1800
    37.3176

          k = 0.0000 0.7500 0.0000 (  3627 PWs)   bands (ev):

    11.3685  11.9022  17.6056  18.0734  18.0734  18.2512  32.3403  32.5551
    32.5551

          k = 0.8750-0.1250 0.8750 (  3647 PWs)   bands (ev):

    11.4435  11.9393  16.9662  17.8258  18.8706  21.6526  28.0714  30.9305
    32.0451

          k = 0.7500 0.0000 0.7500 (  3644 PWs)   bands (ev):

    11.9252  12.7734  15.5725  17.1335  18.3822  24.8320  25.6866  29.1996
    34.0465

          k = 0.0000-1.0000 0.0000 (  3612 PWs)   bands (ev):

    11.0693  11.5427  18.5330  19.0845  19.0846  20.5588  28.1000  30.6652
    30.6652

          k =-0.2500 0.5000 0.0000 (  3638 PWs)   bands (ev):

    11.4920  13.1527  14.5120  16.3100  16.3858  18.5889  32.8196  35.0447
    37.5192

          k = 0.6250-0.3750 0.8750 (  3643 PWs)   bands (ev):

    12.2293  13.6722  14.0196  15.9792  17.7752  20.6602  28.4268  33.6970
    35.6616

          k = 0.5000-0.2500 0.7500 (  3642 PWs)   bands (ev):

    12.2256  13.4352  14.9442  15.6907  18.3550  23.2619  24.5694  34.0858
    34.4242

          k = 0.7500-0.2500 1.0000 (  3615 PWs)   bands (ev):

    12.0266  12.4012  15.1108  17.5526  18.0624  20.8568  29.7395  31.6154
    33.5124

          k = 0.6250-0.1250 0.8750 (  3640 PWs)   bands (ev):

    12.3494  12.9758  14.6679  16.7826  18.6352  24.3160  26.1210  30.4223
    32.6377

          k = 0.5000 0.0000 0.7500 (  3644 PWs)   bands (ev):

    12.9656  13.3745  13.7959  16.4702  18.0756  23.0314  28.6354  28.9885
    34.3385

          k =-0.2500-1.0000 0.0000 (  3642 PWs)   bands (ev):

    11.6755  12.1076  16.3549  17.6297  19.0864  23.7102  26.9698  29.8529
    31.0411

          k =-0.5000-1.0000 0.0000 (  3676 PWs)   bands (ev):

    12.5451  13.7583  13.7583  16.4315  19.0883  26.3236  27.3214  27.3214
    31.1112

     the Fermi energy is    18.5055 ev

!    total energy              =     -66.16074729 Ry
     estimated scf accuracy    <          1.4E-10 Ry
     smearing contrib. (-TS)   =      -0.00462772 Ry
     internal energy E=F+TS    =     -66.15611957 Ry

     The total energy is F=E-TS. E is the sum of the following terms:
     one-electron contribution =      17.46384321 Ry
     hartree contribution      =       4.01928822 Ry
     xc contribution           =     -24.85012372 Ry
     ewald contribution        =     -62.78912728 Ry

     convergence has been achieved in   9 iterations

     Writing all to output data dir ./Ptbulk.save/
 
     init_run     :     13.82s CPU     14.32s WALL (       1 calls)
     electrons    :      9.53s CPU      9.80s WALL (       1 calls)

     Called by init_run:
     wfcinit      :      0.10s CPU      0.09s WALL (       1 calls)
     potinit      :     12.51s CPU     12.55s WALL (       1 calls)
     hinit0       :      1.17s CPU      1.63s WALL (       1 calls)

     Called by electrons:
     c_bands      :      4.69s CPU      4.71s WALL (      10 calls)
     sum_band     :      0.69s CPU      0.68s WALL (      10 calls)
     v_of_rho     :     15.64s CPU     15.91s WALL (      10 calls)
     newd         :      0.14s CPU      0.13s WALL (      10 calls)
     mix_rho      :      0.08s CPU      0.07s WALL (      10 calls)
     vdW_kernel   :     11.33s CPU     11.33s WALL (       1 calls)

     Called by c_bands:
     init_us_2    :      0.04s CPU      0.07s WALL (      42 calls)
     init_us_2:cp :      0.04s CPU      0.07s WALL (      42 calls)
     ccgdiagg     :      3.36s CPU      3.36s WALL (      20 calls)
     wfcrot       :      0.78s CPU      0.76s WALL (      18 calls)

     Called by *cgdiagg:
     h_psi        :      3.71s CPU      3.66s WALL (     696 calls)
     s_psi        :      0.12s CPU      0.14s WALL (    1374 calls)

     Called by h_psi:
     h_psi:calbec :      0.07s CPU      0.12s WALL (     696 calls)
     vloc_psi     :      3.53s CPU      3.43s WALL (     696 calls)
     add_vuspsi   :      0.07s CPU      0.08s WALL (     696 calls)
     hs_1psi      :      3.04s CPU      3.05s WALL (     678 calls)
     s_1psi       :      0.18s CPU      0.15s WALL (     678 calls)

     General routines
     calbec       :      0.16s CPU      0.19s WALL (    1394 calls)
     fft          :      1.17s CPU      1.13s WALL (     611 calls)
     ffts         :      0.03s CPU      0.02s WALL (      10 calls)
     fftw         :      3.32s CPU      3.32s WALL (    1860 calls)
 
     Parallel routines
 
     PWSCF        :     23.55s CPU     25.49s WALL

 
   This run was terminated on:  10:37:16   7Oct2022            

=------------------------------------------------------------------------------=
   JOB DONE.
=------------------------------------------------------------------------------=
