
     Program PWSCF v.7.1 starts on  7Oct2022 at 10:56:46 

     This program is part of the open-source Quantum ESPRESSO suite
     for quantum simulation of materials; please cite
         "P. Giannozzi et al., J. Phys.:Condens. Matter 21 395502 (2009);
         "P. Giannozzi et al., J. Phys.:Condens. Matter 29 465901 (2017);
         "P. Giannozzi et al., J. Chem. Phys. 152 154105 (2020);
          URL http://www.quantum-espresso.org", 
     in publications or presentations arising from this work. More details at
     http://www.quantum-espresso.org/quote

     Parallel version (MPI), running on    24 processors

     MPI processes distributed on     3 nodes
     74896 MiB available memory on the printing compute node when the environment starts
 
     Waiting for input...
     Reading input from standard input

     Current dimensions of program PWSCF are:
     Max number of different atomic species (ntypx) = 10
     Max number of k-points (npk) =  40000
     Max angular momentum in pseudopotentials (lmaxx) =  4
     file Pt.pbe-n-rrkjus_psl.1.0.0.UPF: wavefunction(s)  6S renormalized

     **************************************************************************
     Initializing libbeef V0.1.2 with the BEEF-vdW functional.
     Citation: Wellendorff et al., PRB 85, 235149 (2012).
     **************************************************************************


     IMPORTANT: XC functional enforced from input :
     Exchange-correlation= BEEF-VDW
                           (   1   4  43  14   2   0   0)
     Any further DFT definition will be discarded
     Please, verify this is what you really want

 
     K-points division:     npool     =      24
     Subspace diagonalization in iterative solution of the eigenvalue problem:
     a serial algorithm will be used

 
     G-vector sticks info
     --------------------
     sticks:   dense  smooth     PW     G-vecs:    dense   smooth      PW
     Sum        1357    1357    385                32743    32743    5065
 
     Using Slab Decomposition
 


     bravais-lattice index     =            2
     lattice parameter (alat)  =       7.6000  a.u.
     unit-cell volume          =     109.7440 (a.u.)^3
     number of atoms/cell      =            1
     number of atomic types    =            1
     number of electrons       =        10.00
     number of Kohn-Sham states=            9
     kinetic-energy cutoff     =     170.0000  Ry
     charge density cutoff     =     680.0000  Ry
     scf convergence threshold =      1.0E-09
     mixing beta               =       0.7000
     number of iterations used =            8  plain     mixing
     Exchange-correlation= BEEF-VDW
                           (   1   4  43  14   2   0   0)

     celldm(1)=   7.600000  celldm(2)=   0.000000  celldm(3)=   0.000000
     celldm(4)=   0.000000  celldm(5)=   0.000000  celldm(6)=   0.000000

     crystal axes: (cart. coord. in units of alat)
               a(1) = (  -0.500000   0.000000   0.500000 )  
               a(2) = (   0.000000   0.500000   0.500000 )  
               a(3) = (  -0.500000   0.500000   0.000000 )  

     reciprocal axes: (cart. coord. in units 2 pi/alat)
               b(1) = ( -1.000000 -1.000000  1.000000 )  
               b(2) = (  1.000000  1.000000  1.000000 )  
               b(3) = ( -1.000000  1.000000 -1.000000 )  


     PseudoPot. # 1 for Pt read from file:
     ./pseudo/Pt.pbe-n-rrkjus_psl.1.0.0.UPF
     MD5 check sum: 6bc887cfe28d63a5fc1f72d35a7d3ef7
     Pseudo is Ultrasoft + core correction, Zval = 10.0
     Generated using &quot;atomic&quot; code by A. Dal Corso  v.6.3
     Using radial grid of 1277 points,  6 beta functions with: 
                l(1) =   0
                l(2) =   0
                l(3) =   1
                l(4) =   1
                l(5) =   2
                l(6) =   2
     Q(r) pseudized with 0 coefficients 


     atomic species   valence    mass     pseudopotential
        Pt            10.00   195.07800     Pt( 1.00)

     48 Sym. Ops., with inversion, found



   Cartesian axes

     site n.     atom                  positions (alat units)
         1           Pt  tau(   1) = (   0.0000000   0.0000000   0.0000000  )

     number of k points=    29  Gaussian smearing, width (Ry)=  0.0200
                       cart. coord. in units 2pi/alat
        k(    1) = (   0.0000000   0.0000000   0.0000000), wk =   0.0039062
        k(    2) = (  -0.1250000   0.1250000  -0.1250000), wk =   0.0312500
        k(    3) = (  -0.2500000   0.2500000  -0.2500000), wk =   0.0312500
        k(    4) = (  -0.3750000   0.3750000  -0.3750000), wk =   0.0312500
        k(    5) = (   0.5000000  -0.5000000   0.5000000), wk =   0.0156250
        k(    6) = (   0.0000000   0.2500000   0.0000000), wk =   0.0234375
        k(    7) = (  -0.1250000   0.3750000  -0.1250000), wk =   0.0937500
        k(    8) = (  -0.2500000   0.5000000  -0.2500000), wk =   0.0937500
        k(    9) = (   0.6250000  -0.3750000   0.6250000), wk =   0.0937500
        k(   10) = (   0.5000000  -0.2500000   0.5000000), wk =   0.0937500
        k(   11) = (   0.3750000  -0.1250000   0.3750000), wk =   0.0937500
        k(   12) = (   0.2500000   0.0000000   0.2500000), wk =   0.0468750
        k(   13) = (   0.0000000   0.5000000   0.0000000), wk =   0.0234375
        k(   14) = (  -0.1250000   0.6250000  -0.1250000), wk =   0.0937500
        k(   15) = (   0.7500000  -0.2500000   0.7500000), wk =   0.0937500
        k(   16) = (   0.6250000  -0.1250000   0.6250000), wk =   0.0937500
        k(   17) = (   0.5000000   0.0000000   0.5000000), wk =   0.0468750
        k(   18) = (   0.0000000   0.7500000   0.0000000), wk =   0.0234375
        k(   19) = (   0.8750000  -0.1250000   0.8750000), wk =   0.0937500
        k(   20) = (   0.7500000   0.0000000   0.7500000), wk =   0.0468750
        k(   21) = (   0.0000000  -1.0000000   0.0000000), wk =   0.0117188
        k(   22) = (  -0.2500000   0.5000000   0.0000000), wk =   0.0937500
        k(   23) = (   0.6250000  -0.3750000   0.8750000), wk =   0.1875000
        k(   24) = (   0.5000000  -0.2500000   0.7500000), wk =   0.0937500
        k(   25) = (   0.7500000  -0.2500000   1.0000000), wk =   0.0937500
        k(   26) = (   0.6250000  -0.1250000   0.8750000), wk =   0.1875000
        k(   27) = (   0.5000000   0.0000000   0.7500000), wk =   0.0937500
        k(   28) = (  -0.2500000  -1.0000000   0.0000000), wk =   0.0468750
        k(   29) = (  -0.5000000  -1.0000000   0.0000000), wk =   0.0234375

     Dense  grid:    32743 G-vectors     FFT dimensions: (  45,  45,  45)

     Estimated max dynamical RAM per process >      29.15 MB

     Estimated total dynamical RAM >     515.86 MB

     Initial potential from superposition of free atoms

     starting charge       9.9998, renormalised to      10.0000


     %%%%%%%%%%%%%%%%%%%%%%%%%%%%%%%%%%%%%%%%%%%%%%%%%%%%%%%%%%%%%%%%%%%%%%%%
     %                                                                      %
     % You are using vdW-DF, which was implemented by the Thonhauser group. %
     % Please cite the following two papers that made this development      %
     % possible and the two reviews that describe the various versions:     %
     %                                                                      %
     %   T. Thonhauser et al., PRL 115, 136402 (2015).                      %
     %   T. Thonhauser et al., PRB 76, 125112 (2007).                       %
     %   K. Berland et al., Rep. Prog. Phys. 78, 066501 (2015).             %
     %   D.C. Langreth et al., J. Phys.: Condens. Matter 21, 084203 (2009). %
     %                                                                      %
     % If you are calculating stress with vdW-DF, please also cite:         %
     %                                                                      %
     %   R. Sabatini et al., J. Phys.: Condens. Matter 24, 424209 (2012).   %
     %                                                                      %
     %%%%%%%%%%%%%%%%%%%%%%%%%%%%%%%%%%%%%%%%%%%%%%%%%%%%%%%%%%%%%%%%%%%%%%%%

     %%%%%%%%%%%%%%%%%%%%%%%%%%%%%%%%%%%%%%%%%%%%%%%%%%%%%%%%%%%%%%%%%%%%%%%%
     %                                                                      %
     %  vdW-DF NEWS:                                                        %
     %                                                                      %
     %  * vdW-DF3 is now available. DOI: 10.1021/acs.jctc.0c00471           %
     %    use with input_dft = 'vdW-DF3-opt1' or 'vdW-DF3-opt2'             %
     %                                                                      %
     %  * Unscreened and range-separated vdW-DF hybrid functionals          %
     %    DOI: 10.1063/1.4986522 and 10.1088/1361-648X/ac2ad2               %
     %    use with input_dft = 'vdW-DF-cx0' (etc) and 'vdW-DF-ahcx'         %
     %                                                                      %
     %%%%%%%%%%%%%%%%%%%%%%%%%%%%%%%%%%%%%%%%%%%%%%%%%%%%%%%%%%%%%%%%%%%%%%%%


     Starting wfcs are    9 randomized atomic wfcs

     total cpu time spent up to now is       15.4 secs

     Self-consistent Calculation

     iteration #  1     ecut=   170.00 Ry     beta= 0.70
     CG style diagonalization
     ethr =  1.00E-02,  avg # of iterations =  3.6

     Threshold (ethr) on eigenvalues was too large:
     Diagonalizing with lowered threshold

     CG style diagonalization
     ethr =  1.13E-04,  avg # of iterations =  5.9

     total cpu time spent up to now is       17.2 secs

     total energy              =     -66.16437085 Ry
     estimated scf accuracy    <       0.03194077 Ry

     iteration #  2     ecut=   170.00 Ry     beta= 0.70
     CG style diagonalization
     ethr =  3.19E-04,  avg # of iterations =  3.2

     total cpu time spent up to now is       18.1 secs

     total energy              =     -66.17046634 Ry
     estimated scf accuracy    <       0.00174992 Ry

     iteration #  3     ecut=   170.00 Ry     beta= 0.70
     CG style diagonalization
     ethr =  1.75E-05,  avg # of iterations =  4.7

     total cpu time spent up to now is       19.2 secs

     total energy              =     -66.17152187 Ry
     estimated scf accuracy    <       0.00013797 Ry

     iteration #  4     ecut=   170.00 Ry     beta= 0.70
     CG style diagonalization
     ethr =  1.38E-06,  avg # of iterations =  4.9

     total cpu time spent up to now is       20.4 secs

     total energy              =     -66.17158439 Ry
     estimated scf accuracy    <       0.00002202 Ry

     iteration #  5     ecut=   170.00 Ry     beta= 0.70
     CG style diagonalization
     ethr =  2.20E-07,  avg # of iterations =  4.5

     total cpu time spent up to now is       21.5 secs

     total energy              =     -66.17160765 Ry
     estimated scf accuracy    <       0.00000985 Ry

     iteration #  6     ecut=   170.00 Ry     beta= 0.70
     CG style diagonalization
     ethr =  9.85E-08,  avg # of iterations =  3.2

     total cpu time spent up to now is       22.4 secs

     total energy              =     -66.17160757 Ry
     estimated scf accuracy    <       0.00000208 Ry

     iteration #  7     ecut=   170.00 Ry     beta= 0.70
     CG style diagonalization
     ethr =  2.08E-08,  avg # of iterations =  3.7

     total cpu time spent up to now is       23.4 secs

     total energy              =     -66.17160855 Ry
     estimated scf accuracy    <       0.00000014 Ry

     iteration #  8     ecut=   170.00 Ry     beta= 0.70
     CG style diagonalization
     ethr =  1.36E-09,  avg # of iterations =  4.5

     total cpu time spent up to now is       24.5 secs

     End of self-consistent calculation

          k = 0.0000 0.0000 0.0000 (  4111 PWs)   bands (ev):

     6.4371  12.2805  12.2805  12.2805  14.1212  14.1212  31.4768  35.9374
    35.9374

          k =-0.1250 0.1250-0.1250 (  4095 PWs)   bands (ev):

     7.0031  12.0809  12.4754  12.4754  14.0427  14.0427  32.1342  33.2126
    36.6501

          k =-0.2500 0.2500-0.2500 (  4107 PWs)   bands (ev):

     8.3470  12.0224  12.6065  12.6065  14.3046  14.3046  28.7577  32.7328
    37.7688

          k =-0.3750 0.3750-0.3750 (  4122 PWs)   bands (ev):

     9.1069  12.3570  12.3570  13.6277  15.1347  15.1347  23.9926  31.4626
    35.9240

          k = 0.5000-0.5000 0.5000 (  4092 PWs)   bands (ev):

     9.1554  12.2172  12.2172  15.5849  15.5849  15.6620  20.9817  30.8681
    34.7897

          k = 0.0000 0.2500 0.0000 (  4100 PWs)   bands (ev):

     7.1958  11.8422  12.6639  12.6639  13.6492  14.3110  32.5012  34.2341
    35.4077

          k =-0.1250 0.3750-0.1250 (  4102 PWs)   bands (ev):

     8.3406  11.4960  12.7246  12.9798  13.7912  14.6063  30.6383  33.3932
    34.7252

          k =-0.2500 0.5000-0.2500 (  4122 PWs)   bands (ev):

     9.4287  12.0079  12.2275  12.8470  15.2941  15.2958  25.7420  32.3130
    33.8209

          k = 0.6250-0.3750 0.6250 (  4109 PWs)   bands (ev):

     9.5806  11.9136  12.6090  13.4759  15.6157  17.5944  21.4047  31.3160
    33.6652

          k = 0.5000-0.2500 0.5000 (  4119 PWs)   bands (ev):

     9.6082  12.0155  12.6009  13.2768  15.0159  17.0664  22.7487  31.2101
    32.9332

          k = 0.3750-0.1250 0.3750 (  4101 PWs)   bands (ev):

     9.2269  11.8014  12.4436  12.8647  13.9588  15.5636  27.4141  31.8696
    34.3067

          k = 0.2500 0.0000 0.2500 (  4081 PWs)   bands (ev):

     7.8765  11.7552  12.6732  12.7986  13.6133  14.5077  31.4420  32.6048
    35.3704

          k = 0.0000 0.5000 0.0000 (  4088 PWs)   bands (ev):

     9.0071  10.9087  13.0037  13.7443  13.7443  14.7911  32.4136  32.4136
    33.2798

          k =-0.1250 0.6250-0.1250 (  4103 PWs)   bands (ev):

     9.8190  10.6833  12.7309  13.9512  15.3700  15.4395  27.7652  30.9825
    31.4414

          k = 0.7500-0.2500 0.7500 (  4111 PWs)   bands (ev):

    10.1263  11.1596  12.5676  13.6747  15.6961  18.5311  22.8860  29.2502
    31.0278

          k = 0.6250-0.1250 0.6250 (  4110 PWs)   bands (ev):

    10.4522  11.4763  12.4400  13.4504  15.0679  19.3839  22.4866  27.5627
    32.9944

          k = 0.5000 0.0000 0.5000 (  4121 PWs)   bands (ev):

    10.5118  11.5704  11.9261  13.3485  14.0910  17.3186  26.1248  27.9993
    33.8040

          k = 0.0000 0.7500 0.0000 (  4100 PWs)   bands (ev):

     9.6101  10.1040  14.9578  15.1855  15.1855  15.3071  27.9524  28.8177
    28.8178

          k = 0.8750-0.1250 0.8750 (  4117 PWs)   bands (ev):

     9.7075  10.1292  14.3367  14.9793  15.8119  18.4481  24.2600  26.9847
    28.3798

          k = 0.7500 0.0000 0.7500 (  4103 PWs)   bands (ev):

    10.1211  10.8255  13.1645  14.4272  15.4269  21.3370  22.1133  25.1824
    30.1030

          k = 0.0000-1.0000 0.0000 (  4088 PWs)   bands (ev):

     9.3937   9.7993  15.5330  15.9847  15.9847  17.7891  23.8229  27.2047
    27.2047

          k =-0.2500 0.5000 0.0000 (  4091 PWs)   bands (ev):

     9.5378  11.1471  12.2826  13.7499  13.8166  15.6074  28.8985  30.7941
    33.6807

          k = 0.6250-0.3750 0.8750 (  4106 PWs)   bands (ev):

    10.2934  11.5961  11.8500  13.4853  14.9473  17.4131  24.6058  29.6012
    31.8401

          k = 0.5000-0.2500 0.7500 (  4102 PWs)   bands (ev):

    10.3110  11.4037  12.6458  13.2481  15.4049  19.9656  20.8247  29.8973
    30.6303

          k = 0.7500-0.2500 1.0000 (  4119 PWs)   bands (ev):

    10.1791  10.5155  12.7647  14.7742  15.1759  17.6187  25.9006  27.7558
    29.4228

          k = 0.6250-0.1250 0.8750 (  4117 PWs)   bands (ev):

    10.4786  10.9945  12.4000  14.1483  15.6308  20.7327  22.5752  26.4246
    28.6819

          k = 0.5000 0.0000 0.7500 (  4100 PWs)   bands (ev):

    11.0050  11.3033  11.6736  13.8939  15.1845  19.5876  24.7700  25.1361
    30.2594

          k =-0.2500-1.0000 0.0000 (  4122 PWs)   bands (ev):

     9.9139  10.2668  13.8213  14.8277  15.9861  20.3999  23.0158  26.2723
    27.1821

          k =-0.5000-1.0000 0.0000 (  4128 PWs)   bands (ev):

    10.6596  11.6420  11.6420  13.8654  15.9875  22.4613  23.7165  23.7165
    27.1204

     the Fermi energy is    15.5414 ev

!    total energy              =     -66.17160869 Ry
     estimated scf accuracy    <          6.9E-10 Ry
     smearing contrib. (-TS)   =      -0.00569236 Ry
     internal energy E=F+TS    =     -66.16591634 Ry

     The total energy is F=E-TS. E is the sum of the following terms:
     one-electron contribution =      14.13891905 Ry
     hartree contribution      =       4.75115369 Ry
     xc contribution           =     -24.72885653 Ry
     ewald contribution        =     -60.32713255 Ry

     convergence has been achieved in   8 iterations

     Writing all to output data dir ./Ptbulk.save/
 
     init_run     :     14.67s CPU     15.10s WALL (       1 calls)
     electrons    :      8.89s CPU      9.14s WALL (       1 calls)

     Called by init_run:
     wfcinit      :      0.10s CPU      0.10s WALL (       1 calls)
     potinit      :     13.23s CPU     13.27s WALL (       1 calls)
     hinit0       :      1.29s CPU      1.67s WALL (       1 calls)

     Called by electrons:
     c_bands      :      4.29s CPU      4.30s WALL (       9 calls)
     sum_band     :      0.68s CPU      0.68s WALL (       9 calls)
     v_of_rho     :     16.12s CPU     16.33s WALL (       9 calls)
     newd         :      0.14s CPU      0.14s WALL (       9 calls)
     mix_rho      :      0.06s CPU      0.06s WALL (       9 calls)
     vdW_kernel   :     11.96s CPU     11.96s WALL (       1 calls)

     Called by c_bands:
     init_us_2    :      0.06s CPU      0.07s WALL (      38 calls)
     init_us_2:cp :      0.06s CPU      0.07s WALL (      38 calls)
     ccgdiagg     :      3.02s CPU      3.03s WALL (      18 calls)
     wfcrot       :      0.70s CPU      0.70s WALL (      16 calls)

     Called by *cgdiagg:
     h_psi        :      3.32s CPU      3.32s WALL (     564 calls)
     s_psi        :      0.12s CPU      0.13s WALL (    1112 calls)

     Called by h_psi:
     h_psi:calbec :      0.13s CPU      0.14s WALL (     564 calls)
     vloc_psi     :      3.09s CPU      3.09s WALL (     564 calls)
     add_vuspsi   :      0.08s CPU      0.08s WALL (     564 calls)
     hs_1psi      :      2.72s CPU      2.74s WALL (     548 calls)
     s_1psi       :      0.13s CPU      0.13s WALL (     548 calls)

     General routines
     calbec       :      0.23s CPU      0.22s WALL (    1130 calls)
     fft          :      1.11s CPU      1.11s WALL (     550 calls)
     ffts         :      0.02s CPU      0.02s WALL (       9 calls)
     fftw         :      2.98s CPU      2.99s WALL (    1546 calls)
 
     Parallel routines
 
     PWSCF        :     23.78s CPU     25.72s WALL

 
   This run was terminated on:  10:57:12   7Oct2022            

=------------------------------------------------------------------------------=
   JOB DONE.
=------------------------------------------------------------------------------=
