
     Program PWSCF v.7.1 starts on  7Oct2022 at 10:56:46 

     This program is part of the open-source Quantum ESPRESSO suite
     for quantum simulation of materials; please cite
         "P. Giannozzi et al., J. Phys.:Condens. Matter 21 395502 (2009);
         "P. Giannozzi et al., J. Phys.:Condens. Matter 29 465901 (2017);
         "P. Giannozzi et al., J. Chem. Phys. 152 154105 (2020);
          URL http://www.quantum-espresso.org", 
     in publications or presentations arising from this work. More details at
     http://www.quantum-espresso.org/quote

     Parallel version (MPI), running on    24 processors

     MPI processes distributed on     3 nodes
     49110 MiB available memory on the printing compute node when the environment starts
 
     Waiting for input...
     Reading input from standard input

     Current dimensions of program PWSCF are:
     Max number of different atomic species (ntypx) = 10
     Max number of k-points (npk) =  40000
     Max angular momentum in pseudopotentials (lmaxx) =  4
     file Pt.pbe-n-rrkjus_psl.1.0.0.UPF: wavefunction(s)  6S renormalized

     **************************************************************************
     Initializing libbeef V0.1.2 with the BEEF-vdW functional.
     Citation: Wellendorff et al., PRB 85, 235149 (2012).
     **************************************************************************


     IMPORTANT: XC functional enforced from input :
     Exchange-correlation= BEEF-VDW
                           (   1   4  43  14   2   0   0)
     Any further DFT definition will be discarded
     Please, verify this is what you really want

 
     K-points division:     npool     =      24
     Subspace diagonalization in iterative solution of the eigenvalue problem:
     a serial algorithm will be used

 
     G-vector sticks info
     --------------------
     sticks:   dense  smooth     PW     G-vecs:    dense   smooth      PW
     Sum        1405    1405    421                34717    34717    5577
 
     Using Slab Decomposition
 


     bravais-lattice index     =            2
     lattice parameter (alat)  =       7.7500  a.u.
     unit-cell volume          =     116.3711 (a.u.)^3
     number of atoms/cell      =            1
     number of atomic types    =            1
     number of electrons       =        10.00
     number of Kohn-Sham states=            9
     kinetic-energy cutoff     =     170.0000  Ry
     charge density cutoff     =     680.0000  Ry
     scf convergence threshold =      1.0E-09
     mixing beta               =       0.7000
     number of iterations used =            8  plain     mixing
     Exchange-correlation= BEEF-VDW
                           (   1   4  43  14   2   0   0)

     celldm(1)=   7.750000  celldm(2)=   0.000000  celldm(3)=   0.000000
     celldm(4)=   0.000000  celldm(5)=   0.000000  celldm(6)=   0.000000

     crystal axes: (cart. coord. in units of alat)
               a(1) = (  -0.500000   0.000000   0.500000 )  
               a(2) = (   0.000000   0.500000   0.500000 )  
               a(3) = (  -0.500000   0.500000   0.000000 )  

     reciprocal axes: (cart. coord. in units 2 pi/alat)
               b(1) = ( -1.000000 -1.000000  1.000000 )  
               b(2) = (  1.000000  1.000000  1.000000 )  
               b(3) = ( -1.000000  1.000000 -1.000000 )  


     PseudoPot. # 1 for Pt read from file:
     ./pseudo/Pt.pbe-n-rrkjus_psl.1.0.0.UPF
     MD5 check sum: 6bc887cfe28d63a5fc1f72d35a7d3ef7
     Pseudo is Ultrasoft + core correction, Zval = 10.0
     Generated using &quot;atomic&quot; code by A. Dal Corso  v.6.3
     Using radial grid of 1277 points,  6 beta functions with: 
                l(1) =   0
                l(2) =   0
                l(3) =   1
                l(4) =   1
                l(5) =   2
                l(6) =   2
     Q(r) pseudized with 0 coefficients 


     atomic species   valence    mass     pseudopotential
        Pt            10.00   195.07800     Pt( 1.00)

     48 Sym. Ops., with inversion, found



   Cartesian axes

     site n.     atom                  positions (alat units)
         1           Pt  tau(   1) = (   0.0000000   0.0000000   0.0000000  )

     number of k points=    29  Gaussian smearing, width (Ry)=  0.0200
                       cart. coord. in units 2pi/alat
        k(    1) = (   0.0000000   0.0000000   0.0000000), wk =   0.0039062
        k(    2) = (  -0.1250000   0.1250000  -0.1250000), wk =   0.0312500
        k(    3) = (  -0.2500000   0.2500000  -0.2500000), wk =   0.0312500
        k(    4) = (  -0.3750000   0.3750000  -0.3750000), wk =   0.0312500
        k(    5) = (   0.5000000  -0.5000000   0.5000000), wk =   0.0156250
        k(    6) = (   0.0000000   0.2500000   0.0000000), wk =   0.0234375
        k(    7) = (  -0.1250000   0.3750000  -0.1250000), wk =   0.0937500
        k(    8) = (  -0.2500000   0.5000000  -0.2500000), wk =   0.0937500
        k(    9) = (   0.6250000  -0.3750000   0.6250000), wk =   0.0937500
        k(   10) = (   0.5000000  -0.2500000   0.5000000), wk =   0.0937500
        k(   11) = (   0.3750000  -0.1250000   0.3750000), wk =   0.0937500
        k(   12) = (   0.2500000   0.0000000   0.2500000), wk =   0.0468750
        k(   13) = (   0.0000000   0.5000000   0.0000000), wk =   0.0234375
        k(   14) = (  -0.1250000   0.6250000  -0.1250000), wk =   0.0937500
        k(   15) = (   0.7500000  -0.2500000   0.7500000), wk =   0.0937500
        k(   16) = (   0.6250000  -0.1250000   0.6250000), wk =   0.0937500
        k(   17) = (   0.5000000   0.0000000   0.5000000), wk =   0.0468750
        k(   18) = (   0.0000000   0.7500000   0.0000000), wk =   0.0234375
        k(   19) = (   0.8750000  -0.1250000   0.8750000), wk =   0.0937500
        k(   20) = (   0.7500000   0.0000000   0.7500000), wk =   0.0468750
        k(   21) = (   0.0000000  -1.0000000   0.0000000), wk =   0.0117188
        k(   22) = (  -0.2500000   0.5000000   0.0000000), wk =   0.0937500
        k(   23) = (   0.6250000  -0.3750000   0.8750000), wk =   0.1875000
        k(   24) = (   0.5000000  -0.2500000   0.7500000), wk =   0.0937500
        k(   25) = (   0.7500000  -0.2500000   1.0000000), wk =   0.0937500
        k(   26) = (   0.6250000  -0.1250000   0.8750000), wk =   0.1875000
        k(   27) = (   0.5000000   0.0000000   0.7500000), wk =   0.0937500
        k(   28) = (  -0.2500000  -1.0000000   0.0000000), wk =   0.0468750
        k(   29) = (  -0.5000000  -1.0000000   0.0000000), wk =   0.0234375

     Dense  grid:    34717 G-vectors     FFT dimensions: (  45,  45,  45)

     Estimated max dynamical RAM per process >      30.41 MB

     Estimated total dynamical RAM >     534.87 MB

     Initial potential from superposition of free atoms

     starting charge       9.9998, renormalised to      10.0000


     %%%%%%%%%%%%%%%%%%%%%%%%%%%%%%%%%%%%%%%%%%%%%%%%%%%%%%%%%%%%%%%%%%%%%%%%
     %                                                                      %
     % You are using vdW-DF, which was implemented by the Thonhauser group. %
     % Please cite the following two papers that made this development      %
     % possible and the two reviews that describe the various versions:     %
     %                                                                      %
     %   T. Thonhauser et al., PRL 115, 136402 (2015).                      %
     %   T. Thonhauser et al., PRB 76, 125112 (2007).                       %
     %   K. Berland et al., Rep. Prog. Phys. 78, 066501 (2015).             %
     %   D.C. Langreth et al., J. Phys.: Condens. Matter 21, 084203 (2009). %
     %                                                                      %
     % If you are calculating stress with vdW-DF, please also cite:         %
     %                                                                      %
     %   R. Sabatini et al., J. Phys.: Condens. Matter 24, 424209 (2012).   %
     %                                                                      %
     %%%%%%%%%%%%%%%%%%%%%%%%%%%%%%%%%%%%%%%%%%%%%%%%%%%%%%%%%%%%%%%%%%%%%%%%

     %%%%%%%%%%%%%%%%%%%%%%%%%%%%%%%%%%%%%%%%%%%%%%%%%%%%%%%%%%%%%%%%%%%%%%%%
     %                                                                      %
     %  vdW-DF NEWS:                                                        %
     %                                                                      %
     %  * vdW-DF3 is now available. DOI: 10.1021/acs.jctc.0c00471           %
     %    use with input_dft = 'vdW-DF3-opt1' or 'vdW-DF3-opt2'             %
     %                                                                      %
     %  * Unscreened and range-separated vdW-DF hybrid functionals          %
     %    DOI: 10.1063/1.4986522 and 10.1088/1361-648X/ac2ad2               %
     %    use with input_dft = 'vdW-DF-cx0' (etc) and 'vdW-DF-ahcx'         %
     %                                                                      %
     %%%%%%%%%%%%%%%%%%%%%%%%%%%%%%%%%%%%%%%%%%%%%%%%%%%%%%%%%%%%%%%%%%%%%%%%


     Starting wfcs are    9 randomized atomic wfcs

     total cpu time spent up to now is       15.6 secs

     Self-consistent Calculation

     iteration #  1     ecut=   170.00 Ry     beta= 0.70
     CG style diagonalization
     ethr =  1.00E-02,  avg # of iterations =  3.5

     Threshold (ethr) on eigenvalues was too large:
     Diagonalizing with lowered threshold

     CG style diagonalization
     ethr =  1.17E-04,  avg # of iterations =  5.5

     total cpu time spent up to now is       17.4 secs

     total energy              =     -66.15999047 Ry
     estimated scf accuracy    <       0.03233285 Ry

     iteration #  2     ecut=   170.00 Ry     beta= 0.70
     CG style diagonalization
     ethr =  3.23E-04,  avg # of iterations =  3.3

     total cpu time spent up to now is       18.3 secs

     total energy              =     -66.16687447 Ry
     estimated scf accuracy    <       0.00286669 Ry

     iteration #  3     ecut=   170.00 Ry     beta= 0.70
     CG style diagonalization
     ethr =  2.87E-05,  avg # of iterations =  4.0

     total cpu time spent up to now is       19.4 secs

     total energy              =     -66.16810217 Ry
     estimated scf accuracy    <       0.00011811 Ry

     iteration #  4     ecut=   170.00 Ry     beta= 0.70
     CG style diagonalization
     ethr =  1.18E-06,  avg # of iterations =  5.9

     total cpu time spent up to now is       20.6 secs

     total energy              =     -66.16820555 Ry
     estimated scf accuracy    <       0.00000258 Ry

     iteration #  5     ecut=   170.00 Ry     beta= 0.70
     CG style diagonalization
     ethr =  2.58E-08,  avg # of iterations =  5.8

     total cpu time spent up to now is       21.9 secs

     total energy              =     -66.16821613 Ry
     estimated scf accuracy    <       0.00000476 Ry

     iteration #  6     ecut=   170.00 Ry     beta= 0.70
     CG style diagonalization
     ethr =  2.58E-08,  avg # of iterations =  3.5

     total cpu time spent up to now is       22.8 secs

     total energy              =     -66.16821727 Ry
     estimated scf accuracy    <       0.00000001 Ry

     iteration #  7     ecut=   170.00 Ry     beta= 0.70
     CG style diagonalization
     ethr =  1.30E-10,  avg # of iterations =  6.2

     total cpu time spent up to now is       24.1 secs

     total energy              =     -66.16821736 Ry
     estimated scf accuracy    <       0.00000002 Ry

     iteration #  8     ecut=   170.00 Ry     beta= 0.70
     CG style diagonalization
     ethr =  1.30E-10,  avg # of iterations =  3.1

     total cpu time spent up to now is       25.0 secs

     total energy              =     -66.16821737 Ry
     estimated scf accuracy    <          3.4E-09 Ry

     iteration #  9     ecut=   170.00 Ry     beta= 0.70
     CG style diagonalization
     ethr =  3.44E-11,  avg # of iterations =  4.3

     total cpu time spent up to now is       26.0 secs

     End of self-consistent calculation

          k = 0.0000 0.0000 0.0000 (  4285 PWs)   bands (ev):

     5.7128  11.2644  11.2644  11.2644  12.9288  12.9288  30.1648  34.2742
    34.2743

          k =-0.1250 0.1250-0.1250 (  4375 PWs)   bands (ev):

     6.2491  11.0866  11.4426  11.4426  12.8607  12.8607  30.6798  31.6167
    34.8875

          k =-0.2500 0.2500-0.2500 (  4360 PWs)   bands (ev):

     7.5395  11.0393  11.5632  11.5632  13.1022  13.1022  26.9970  31.2659
    35.6806

          k =-0.3750 0.3750-0.3750 (  4362 PWs)   bands (ev):

     8.3081  11.3377  11.3377  12.5570  13.8504  13.8504  22.2588  30.1002
    33.9568

          k = 0.5000-0.5000 0.5000 (  4338 PWs)   bands (ev):

     8.3704  11.2108  11.2108  14.2529  14.2529  14.5679  19.2591  29.5549
    32.9327

          k = 0.0000 0.2500 0.0000 (  4380 PWs)   bands (ev):

     6.4316  10.8701  11.6145  11.6145  12.5086  13.1011  31.0691  33.5878
    33.5880

          k =-0.1250 0.3750-0.1250 (  4369 PWs)   bands (ev):

     7.5249  10.5575  11.6745  11.9029  12.6418  13.3708  28.8647  31.8290
    32.7741

          k =-0.2500 0.5000-0.2500 (  4356 PWs)   bands (ev):

     8.5980  11.0313  11.2225  11.7835  13.9934  14.0244  23.9920  30.8183
    31.8874

          k = 0.6250-0.3750 0.6250 (  4365 PWs)   bands (ev):

     8.7670  10.9418  11.5683  12.3925  14.2806  16.2401  19.7244  29.8247
    31.7909

          k = 0.5000-0.2500 0.5000 (  4361 PWs)   bands (ev):

     8.7870  11.0329  11.5613  12.2141  13.7450  15.6764  21.0528  29.5750
    31.2536

          k = 0.3750-0.1250 0.3750 (  4351 PWs)   bands (ev):

     8.3856  10.8360  11.4238  11.8002  12.7926  14.2457  25.6417  30.0912
    32.6092

          k = 0.2500 0.0000 0.2500 (  4377 PWs)   bands (ev):

     7.0798  10.7931  11.6253  11.7377  12.4772  13.2831  29.7521  30.9070
    33.6710

          k = 0.0000 0.5000 0.0000 (  4360 PWs)   bands (ev):

     8.1723  10.0228  11.9322  12.5987  12.5987  13.5358  30.5407  30.5407
    31.6375

          k =-0.1250 0.6250-0.1250 (  4360 PWs)   bands (ev):

     8.9799   9.8154  11.6834  12.7862  14.0589  14.1609  25.9916  29.1773
    29.5742

          k = 0.7500-0.2500 0.7500 (  4354 PWs)   bands (ev):

     9.2908  10.2588  11.5365  12.5373  14.3527  17.0644  21.2769  27.4047
    29.2295

          k = 0.6250-0.1250 0.6250 (  4362 PWs)   bands (ev):

     9.5867  10.5501  11.4281  12.3353  13.7922  17.8831  20.8322  25.7683
    31.0724

          k = 0.5000 0.0000 0.5000 (  4379 PWs)   bands (ev):

     9.6128  10.6263  10.9624  12.2432  12.9117  15.8727  24.3968  26.1519
    32.2008

          k = 0.0000 0.7500 0.0000 (  4348 PWs)   bands (ev):

     8.8150   9.2857  13.7875  13.9008  13.9008  14.0008  25.9993  27.1415
    27.1415

          k = 0.8750-0.1250 0.8750 (  4337 PWs)   bands (ev):

     8.9188   9.3075  13.1644  13.7124  14.4572  17.0383  22.5356  25.2570
    26.7349

          k = 0.7500 0.0000 0.7500 (  4354 PWs)   bands (ev):

     9.3007   9.9485  12.0901  13.2185  14.1142  19.7616  20.5464  23.4146
    28.3374

          k = 0.0000-1.0000 0.0000 (  4360 PWs)   bands (ev):

     8.6310   9.0053  14.2035  14.6128  14.6128  16.5754  21.9295  25.6478
    25.6478

          k =-0.2500 0.5000 0.0000 (  4358 PWs)   bands (ev):

     8.6753  10.2399  11.2770  12.6037  12.6675  14.2852  27.1190  28.8976
    31.9355

          k = 0.6250-0.3750 0.8750 (  4350 PWs)   bands (ev):

     9.4263  10.6598  10.8767  12.3677  13.6878  15.9787  22.9061  27.7660
    30.0878

          k = 0.5000-0.2500 0.7500 (  4350 PWs)   bands (ev):

     9.4509  10.4836  11.6200  12.1516  14.0944  18.5173  19.1620  28.0228
    28.9029

          k = 0.7500-0.2500 1.0000 (  4354 PWs)   bands (ev):

     9.3452   9.6611  11.7166  13.5362  13.8918  16.1898  24.1748  26.0331
    27.6014

          k = 0.6250-0.1250 0.8750 (  4350 PWs)   bands (ev):

     9.6304  10.1025  11.3855  12.9700  14.2978  19.1429  21.0012  24.6516
    26.9184

          k = 0.5000 0.0000 0.7500 (  4352 PWs)   bands (ev):

    10.1150  10.3788  10.7208  12.7402  13.8984  18.0590  23.0506  23.4361
    28.4319

          k =-0.2500-1.0000 0.0000 (  4342 PWs)   bands (ev):

     9.1137   9.4323  12.6912  13.5786  14.6140  18.9497  21.2428  24.6675
    25.4768

          k =-0.5000-1.0000 0.0000 (  4348 PWs)   bands (ev):

     9.8058  10.6918  10.6918  12.7148  14.6152  20.7368  22.1214  22.1214
    25.3519

     the Fermi energy is    14.2264 ev

!    total energy              =     -66.16821737 Ry
     estimated scf accuracy    <          5.9E-10 Ry
     smearing contrib. (-TS)   =      -0.00613480 Ry
     internal energy E=F+TS    =     -66.16208256 Ry

     The total energy is F=E-TS. E is the sum of the following terms:
     one-electron contribution =      12.54228076 Ry
     hartree contribution      =       5.13640206 Ry
     xc contribution           =     -24.68125475 Ry
     ewald contribution        =     -59.15951063 Ry

     convergence has been achieved in   9 iterations

     Writing all to output data dir ./Ptbulk.save/
 
     init_run     :     15.15s CPU     15.19s WALL (       1 calls)
     electrons    :     10.20s CPU     10.56s WALL (       1 calls)

     Called by init_run:
     wfcinit      :      0.10s CPU      0.10s WALL (       1 calls)
     potinit      :     13.74s CPU     13.78s WALL (       1 calls)
     hinit0       :      1.25s CPU      1.26s WALL (       1 calls)

     Called by electrons:
     c_bands      :      5.07s CPU      5.04s WALL (      10 calls)
     sum_band     :      0.70s CPU      0.73s WALL (      10 calls)
     v_of_rho     :     16.54s CPU     16.77s WALL (      10 calls)
     newd         :      0.22s CPU      0.23s WALL (      10 calls)
     mix_rho      :      0.10s CPU      0.09s WALL (      10 calls)
     vdW_kernel   :     11.99s CPU     11.99s WALL (       1 calls)

     Called by c_bands:
     init_us_2    :      0.09s CPU      0.08s WALL (      42 calls)
     init_us_2:cp :      0.09s CPU      0.08s WALL (      42 calls)
     ccgdiagg     :      3.68s CPU      3.67s WALL (      20 calls)
     wfcrot       :      0.79s CPU      0.80s WALL (      18 calls)

     Called by *cgdiagg:
     h_psi        :      4.05s CPU      3.95s WALL (     704 calls)
     s_psi        :      0.16s CPU      0.17s WALL (    1390 calls)

     Called by h_psi:
     h_psi:calbec :      0.18s CPU      0.14s WALL (     704 calls)
     vloc_psi     :      3.74s CPU      3.69s WALL (     704 calls)
     add_vuspsi   :      0.13s CPU      0.10s WALL (     704 calls)
     hs_1psi      :      3.36s CPU      3.30s WALL (     686 calls)
     s_1psi       :      0.13s CPU      0.17s WALL (     686 calls)

     General routines
     calbec       :      0.24s CPU      0.24s WALL (    1410 calls)
     fft          :      1.23s CPU      1.21s WALL (     611 calls)
     ffts         :      0.02s CPU      0.02s WALL (      10 calls)
     fftw         :      3.62s CPU      3.57s WALL (    1876 calls)
 
     Parallel routines
 
     PWSCF        :     25.56s CPU     27.50s WALL

 
   This run was terminated on:  10:57:14   7Oct2022            

=------------------------------------------------------------------------------=
   JOB DONE.
=------------------------------------------------------------------------------=
