
     Program PWSCF v.7.1 starts on  7Oct2022 at 10:36:50 

     This program is part of the open-source Quantum ESPRESSO suite
     for quantum simulation of materials; please cite
         "P. Giannozzi et al., J. Phys.:Condens. Matter 21 395502 (2009);
         "P. Giannozzi et al., J. Phys.:Condens. Matter 29 465901 (2017);
         "P. Giannozzi et al., J. Chem. Phys. 152 154105 (2020);
          URL http://www.quantum-espresso.org", 
     in publications or presentations arising from this work. More details at
     http://www.quantum-espresso.org/quote

     Parallel version (MPI), running on    24 processors

     MPI processes distributed on     3 nodes
     18737 MiB available memory on the printing compute node when the environment starts
 
     Waiting for input...
     Reading input from standard input

     Current dimensions of program PWSCF are:
     Max number of different atomic species (ntypx) = 10
     Max number of k-points (npk) =  40000
     Max angular momentum in pseudopotentials (lmaxx) =  4
     file Pt.pbe-n-rrkjus_psl.1.0.0.UPF: wavefunction(s)  6S renormalized

     **************************************************************************
     Initializing libbeef V0.1.2 with the BEEF-vdW functional.
     Citation: Wellendorff et al., PRB 85, 235149 (2012).
     **************************************************************************


     IMPORTANT: XC functional enforced from input :
     Exchange-correlation= BEEF-VDW
                           (   1   4  43  14   2   0   0)
     Any further DFT definition will be discarded
     Please, verify this is what you really want

 
     K-points division:     npool     =      24
     Subspace diagonalization in iterative solution of the eigenvalue problem:
     a serial algorithm will be used

 
     G-vector sticks info
     --------------------
     sticks:   dense  smooth     PW     G-vecs:    dense   smooth      PW
     Sum        1285    1285    379                30155    30155    4813
 
     Using Slab Decomposition
 


     bravais-lattice index     =            2
     lattice parameter (alat)  =       7.3820  a.u.
     unit-cell volume          =     100.5685 (a.u.)^3
     number of atoms/cell      =            1
     number of atomic types    =            1
     number of electrons       =        10.00
     number of Kohn-Sham states=            9
     kinetic-energy cutoff     =     170.0000  Ry
     charge density cutoff     =     680.0000  Ry
     scf convergence threshold =      1.0E-09
     mixing beta               =       0.7000
     number of iterations used =            8  plain     mixing
     Exchange-correlation= BEEF-VDW
                           (   1   4  43  14   2   0   0)

     celldm(1)=   7.382000  celldm(2)=   0.000000  celldm(3)=   0.000000
     celldm(4)=   0.000000  celldm(5)=   0.000000  celldm(6)=   0.000000

     crystal axes: (cart. coord. in units of alat)
               a(1) = (  -0.500000   0.000000   0.500000 )  
               a(2) = (   0.000000   0.500000   0.500000 )  
               a(3) = (  -0.500000   0.500000   0.000000 )  

     reciprocal axes: (cart. coord. in units 2 pi/alat)
               b(1) = ( -1.000000 -1.000000  1.000000 )  
               b(2) = (  1.000000  1.000000  1.000000 )  
               b(3) = ( -1.000000  1.000000 -1.000000 )  


     PseudoPot. # 1 for Pt read from file:
     ./pseudo/Pt.pbe-n-rrkjus_psl.1.0.0.UPF
     MD5 check sum: 6bc887cfe28d63a5fc1f72d35a7d3ef7
     Pseudo is Ultrasoft + core correction, Zval = 10.0
     Generated using &quot;atomic&quot; code by A. Dal Corso  v.6.3
     Using radial grid of 1277 points,  6 beta functions with: 
                l(1) =   0
                l(2) =   0
                l(3) =   1
                l(4) =   1
                l(5) =   2
                l(6) =   2
     Q(r) pseudized with 0 coefficients 


     atomic species   valence    mass     pseudopotential
        Pt            10.00   195.07800     Pt( 1.00)

     48 Sym. Ops., with inversion, found



   Cartesian axes

     site n.     atom                  positions (alat units)
         1           Pt  tau(   1) = (   0.0000000   0.0000000   0.0000000  )

     number of k points=    29  Gaussian smearing, width (Ry)=  0.0200
                       cart. coord. in units 2pi/alat
        k(    1) = (   0.0000000   0.0000000   0.0000000), wk =   0.0039062
        k(    2) = (  -0.1250000   0.1250000  -0.1250000), wk =   0.0312500
        k(    3) = (  -0.2500000   0.2500000  -0.2500000), wk =   0.0312500
        k(    4) = (  -0.3750000   0.3750000  -0.3750000), wk =   0.0312500
        k(    5) = (   0.5000000  -0.5000000   0.5000000), wk =   0.0156250
        k(    6) = (   0.0000000   0.2500000   0.0000000), wk =   0.0234375
        k(    7) = (  -0.1250000   0.3750000  -0.1250000), wk =   0.0937500
        k(    8) = (  -0.2500000   0.5000000  -0.2500000), wk =   0.0937500
        k(    9) = (   0.6250000  -0.3750000   0.6250000), wk =   0.0937500
        k(   10) = (   0.5000000  -0.2500000   0.5000000), wk =   0.0937500
        k(   11) = (   0.3750000  -0.1250000   0.3750000), wk =   0.0937500
        k(   12) = (   0.2500000   0.0000000   0.2500000), wk =   0.0468750
        k(   13) = (   0.0000000   0.5000000   0.0000000), wk =   0.0234375
        k(   14) = (  -0.1250000   0.6250000  -0.1250000), wk =   0.0937500
        k(   15) = (   0.7500000  -0.2500000   0.7500000), wk =   0.0937500
        k(   16) = (   0.6250000  -0.1250000   0.6250000), wk =   0.0937500
        k(   17) = (   0.5000000   0.0000000   0.5000000), wk =   0.0468750
        k(   18) = (   0.0000000   0.7500000   0.0000000), wk =   0.0234375
        k(   19) = (   0.8750000  -0.1250000   0.8750000), wk =   0.0937500
        k(   20) = (   0.7500000   0.0000000   0.7500000), wk =   0.0468750
        k(   21) = (   0.0000000  -1.0000000   0.0000000), wk =   0.0117188
        k(   22) = (  -0.2500000   0.5000000   0.0000000), wk =   0.0937500
        k(   23) = (   0.6250000  -0.3750000   0.8750000), wk =   0.1875000
        k(   24) = (   0.5000000  -0.2500000   0.7500000), wk =   0.0937500
        k(   25) = (   0.7500000  -0.2500000   1.0000000), wk =   0.0937500
        k(   26) = (   0.6250000  -0.1250000   0.8750000), wk =   0.1875000
        k(   27) = (   0.5000000   0.0000000   0.7500000), wk =   0.0937500
        k(   28) = (  -0.2500000  -1.0000000   0.0000000), wk =   0.0468750
        k(   29) = (  -0.5000000  -1.0000000   0.0000000), wk =   0.0234375

     Dense  grid:    30155 G-vectors     FFT dimensions: (  45,  45,  45)

     Estimated max dynamical RAM per process >      27.50 MB

     Estimated total dynamical RAM >     490.59 MB

     Initial potential from superposition of free atoms

     starting charge       9.9998, renormalised to      10.0000


     %%%%%%%%%%%%%%%%%%%%%%%%%%%%%%%%%%%%%%%%%%%%%%%%%%%%%%%%%%%%%%%%%%%%%%%%
     %                                                                      %
     % You are using vdW-DF, which was implemented by the Thonhauser group. %
     % Please cite the following two papers that made this development      %
     % possible and the two reviews that describe the various versions:     %
     %                                                                      %
     %   T. Thonhauser et al., PRL 115, 136402 (2015).                      %
     %   T. Thonhauser et al., PRB 76, 125112 (2007).                       %
     %   K. Berland et al., Rep. Prog. Phys. 78, 066501 (2015).             %
     %   D.C. Langreth et al., J. Phys.: Condens. Matter 21, 084203 (2009). %
     %                                                                      %
     % If you are calculating stress with vdW-DF, please also cite:         %
     %                                                                      %
     %   R. Sabatini et al., J. Phys.: Condens. Matter 24, 424209 (2012).   %
     %                                                                      %
     %%%%%%%%%%%%%%%%%%%%%%%%%%%%%%%%%%%%%%%%%%%%%%%%%%%%%%%%%%%%%%%%%%%%%%%%

     %%%%%%%%%%%%%%%%%%%%%%%%%%%%%%%%%%%%%%%%%%%%%%%%%%%%%%%%%%%%%%%%%%%%%%%%
     %                                                                      %
     %  vdW-DF NEWS:                                                        %
     %                                                                      %
     %  * vdW-DF3 is now available. DOI: 10.1021/acs.jctc.0c00471           %
     %    use with input_dft = 'vdW-DF3-opt1' or 'vdW-DF3-opt2'             %
     %                                                                      %
     %  * Unscreened and range-separated vdW-DF hybrid functionals          %
     %    DOI: 10.1063/1.4986522 and 10.1088/1361-648X/ac2ad2               %
     %    use with input_dft = 'vdW-DF-cx0' (etc) and 'vdW-DF-ahcx'         %
     %                                                                      %
     %%%%%%%%%%%%%%%%%%%%%%%%%%%%%%%%%%%%%%%%%%%%%%%%%%%%%%%%%%%%%%%%%%%%%%%%


     Starting wfcs are    9 randomized atomic wfcs

     total cpu time spent up to now is       12.7 secs

     Self-consistent Calculation

     iteration #  1     ecut=   170.00 Ry     beta= 0.70
     CG style diagonalization
     ethr =  1.00E-02,  avg # of iterations =  3.8

     Threshold (ethr) on eigenvalues was too large:
     Diagonalizing with lowered threshold

     CG style diagonalization
     ethr =  9.68E-05,  avg # of iterations =  6.1

     total cpu time spent up to now is       14.2 secs

     total energy              =     -66.16060642 Ry
     estimated scf accuracy    <       0.03093326 Ry

     iteration #  2     ecut=   170.00 Ry     beta= 0.70
     CG style diagonalization
     ethr =  3.09E-04,  avg # of iterations =  3.1

     total cpu time spent up to now is       15.0 secs

     total energy              =     -66.16556565 Ry
     estimated scf accuracy    <       0.00082735 Ry

     iteration #  3     ecut=   170.00 Ry     beta= 0.70
     CG style diagonalization
     ethr =  8.27E-06,  avg # of iterations =  5.8

     total cpu time spent up to now is       15.9 secs

     total energy              =     -66.16646954 Ry
     estimated scf accuracy    <       0.00022537 Ry

     iteration #  4     ecut=   170.00 Ry     beta= 0.70
     CG style diagonalization
     ethr =  2.25E-06,  avg # of iterations =  4.1

     total cpu time spent up to now is       16.8 secs

     total energy              =     -66.16646337 Ry
     estimated scf accuracy    <       0.00021189 Ry

     iteration #  5     ecut=   170.00 Ry     beta= 0.70
     CG style diagonalization
     ethr =  2.12E-06,  avg # of iterations =  3.3

     total cpu time spent up to now is       17.5 secs

     total energy              =     -66.16651688 Ry
     estimated scf accuracy    <       0.00000060 Ry

     iteration #  6     ecut=   170.00 Ry     beta= 0.70
     CG style diagonalization
     ethr =  5.96E-09,  avg # of iterations =  6.1

     total cpu time spent up to now is       18.5 secs

     total energy              =     -66.16652325 Ry
     estimated scf accuracy    <       0.00000136 Ry

     iteration #  7     ecut=   170.00 Ry     beta= 0.70
     CG style diagonalization
     ethr =  5.96E-09,  avg # of iterations =  3.0

     total cpu time spent up to now is       19.2 secs

     total energy              =     -66.16652261 Ry
     estimated scf accuracy    <       0.00000092 Ry

     iteration #  8     ecut=   170.00 Ry     beta= 0.70
     CG style diagonalization
     ethr =  5.96E-09,  avg # of iterations =  3.6

     total cpu time spent up to now is       20.0 secs

     total energy              =     -66.16652293 Ry
     estimated scf accuracy    <       0.00000009 Ry

     iteration #  9     ecut=   170.00 Ry     beta= 0.70
     CG style diagonalization
     ethr =  9.21E-10,  avg # of iterations =  3.7

     total cpu time spent up to now is       20.8 secs

     total energy              =     -66.16652296 Ry
     estimated scf accuracy    <       0.00000004 Ry

     iteration # 10     ecut=   170.00 Ry     beta= 0.70
     CG style diagonalization
     ethr =  3.64E-10,  avg # of iterations =  3.1

     total cpu time spent up to now is       21.6 secs

     total energy              =     -66.16652294 Ry
     estimated scf accuracy    <       0.00000003 Ry

     iteration # 11     ecut=   170.00 Ry     beta= 0.70
     CG style diagonalization
     ethr =  2.96E-10,  avg # of iterations =  3.4

     total cpu time spent up to now is       22.3 secs

     total energy              =     -66.16652295 Ry
     estimated scf accuracy    <          9.9E-09 Ry

     iteration # 12     ecut=   170.00 Ry     beta= 0.70
     CG style diagonalization
     ethr =  9.93E-11,  avg # of iterations =  3.4

     total cpu time spent up to now is       23.1 secs

     total energy              =     -66.16652295 Ry
     estimated scf accuracy    <          1.1E-09 Ry

     iteration # 13     ecut=   170.00 Ry     beta= 0.70
     CG style diagonalization
     ethr =  1.09E-11,  avg # of iterations =  3.5

     total cpu time spent up to now is       23.9 secs

     End of self-consistent calculation

          k = 0.0000 0.0000 0.0000 (  3719 PWs)   bands (ev):

     7.6132  13.8956  13.8956  13.8956  16.0312  16.0312  33.5331  38.5237
    38.5237

          k =-0.1250 0.1250-0.1250 (  3773 PWs)   bands (ev):

     8.2276  13.6596  14.1180  14.1180  15.9342  15.9342  34.3723  35.7271
    39.3869

          k =-0.2500 0.2500-0.2500 (  3744 PWs)   bands (ev):

     9.6524  13.5897  14.2660  14.2660  16.2291  16.2291  31.5119  35.0840
    41.0423

          k =-0.3750 0.3750-0.3750 (  3768 PWs)   bands (ev):

    10.3814  13.9765  13.9765  15.3545  17.1970  17.1970  26.7828  33.6161
    39.0224

          k = 0.5000-0.5000 0.5000 (  3750 PWs)   bands (ev):

    10.4032  13.8152  13.8152  17.4430  17.7287  17.7287  23.7640  32.9291
    37.7055

          k = 0.0000 0.2500 0.0000 (  3759 PWs)   bands (ev):

     8.4371  13.3834  14.3342  14.3342  15.4705  16.2501  34.7482  36.7482
    38.2329

          k =-0.1250 0.3750-0.1250 (  3752 PWs)   bands (ev):

     9.6634  12.9831  14.3946  14.6957  15.6277  16.5878  33.4036  35.8717
    37.8051

          k =-0.2500 0.5000-0.2500 (  3777 PWs)   bands (ev):

    10.7595  13.5682  13.8244  14.5400  17.3337  17.3896  28.5450  34.6745
    36.8925

          k = 0.6250-0.3750 0.6250 (  3756 PWs)   bands (ev):

    10.8752  13.4538  14.2638  15.2121  17.7650  19.7874  24.1213  33.6195
    36.6261

          k = 0.5000-0.2500 0.5000 (  3761 PWs)   bands (ev):

    10.9169  13.5734  14.2535  14.9829  17.0551  19.3134  25.4883  33.6823
    35.7002

          k = 0.3750-0.1250 0.3750 (  3763 PWs)   bands (ev):

    10.5829  13.3403  14.0650  14.5585  15.8219  17.6841  30.2290  34.6286
    37.0816

          k = 0.2500 0.0000 0.2500 (  3757 PWs)   bands (ev):

     9.1702  13.2811  14.3411  14.4870  15.4268  16.4708  34.0596  35.2177
    38.0987

          k = 0.0000 0.5000 0.0000 (  3767 PWs)   bands (ev):

    10.3559  12.3079  14.7136  15.5741  15.5741  16.8063  35.3923  35.3924
    35.8768

          k =-0.1250 0.6250-0.1250 (  3768 PWs)   bands (ev):

    11.1597  12.0563  14.4059  15.8130  17.4790  17.4944  30.5941  33.8619
    34.3777

          k = 0.7500-0.2500 0.7500 (  3759 PWs)   bands (ev):

    11.4504  12.5901  14.2172  15.4900  17.8596  20.8957  25.4750  32.1883
    33.8928

          k = 0.6250-0.1250 0.6250 (  3764 PWs)   bands (ev):

    11.8265  12.9483  14.0589  15.2282  17.1151  21.7965  25.1666  30.4415
    36.0596

          k = 0.5000 0.0000 0.5000 (  3775 PWs)   bands (ev):

    11.9561  13.0724  13.4576  15.1099  15.9753  19.6538  28.8842  30.9834
    36.3277

          k = 0.0000 0.7500 0.0000 (  3768 PWs)   bands (ev):

    10.8700  11.3935  16.8470  17.2479  17.2479  17.4086  31.0893  31.4931
    31.4931

          k = 0.8750-0.1250 0.8750 (  3772 PWs)   bands (ev):

    10.9523  11.4266  16.2151  17.0124  17.9943  20.7328  26.9944  29.7955
    31.0040

          k = 0.7500 0.0000 0.7500 (  3779 PWs)   bands (ev):

    11.4149  12.2196  14.8849  16.3614  17.5368  23.8411  24.6599  28.0480
    32.9250

          k = 0.0000-1.0000 0.0000 (  3812 PWs)   bands (ev):

    10.5957  11.0497  17.6739  18.1962  18.1962  19.7627  26.8768  29.6835
    29.6835

          k =-0.2500 0.5000 0.0000 (  3762 PWs)   bands (ev):

    10.9320  12.5837  13.8789  15.5804  15.6534  17.7355  31.7127  33.8340
    36.4344

          k = 0.6250-0.3750 0.8750 (  3773 PWs)   bands (ev):

    11.6779  13.0827  13.4016  15.2688  16.9673  19.7296  27.3371  32.5329
    34.5876

          k = 0.5000-0.2500 0.7500 (  3748 PWs)   bands (ev):

    11.6808  12.8594  14.2880  14.9955  17.5111  22.3157  23.4998  32.8944
    33.3549

          k = 0.7500-0.2500 1.0000 (  3765 PWs)   bands (ev):

    11.5023  11.8666  14.4414  16.7591  17.2373  19.9284  28.6502  30.5163
    32.3468

          k = 0.6250-0.1250 0.8750 (  3766 PWs)   bands (ev):

    11.8194  12.4125  14.0211  16.0317  17.7753  23.2916  25.1088  29.2805
    31.5104

          k = 0.5000 0.0000 0.7500 (  3771 PWs)   bands (ev):

    12.4105  12.7834  13.1916  15.7362  17.2491  22.0475  27.5329  27.8851
    33.1791

          k =-0.2500-1.0000 0.0000 (  3774 PWs)   bands (ev):

    11.1770  11.5858  15.6313  16.8296  18.1979  22.7587  25.8469  28.8353
    29.9359

          k =-0.5000-1.0000 0.0000 (  3736 PWs)   bands (ev):

    12.0107  13.1557  13.1557  15.7010  18.1997  25.2237  26.2904  26.2904
    29.9705

     the Fermi energy is    17.6561 ev

!    total energy              =     -66.16652295 Ry
     estimated scf accuracy    <          6.0E-10 Ry
     smearing contrib. (-TS)   =      -0.00493297 Ry
     internal energy E=F+TS    =     -66.16158998 Ry

     The total energy is F=E-TS. E is the sum of the following terms:
     one-electron contribution =      16.55077349 Ry
     hartree contribution      =       4.20927815 Ry
     xc contribution           =     -24.81297088 Ry
     ewald contribution        =     -62.10867074 Ry

     convergence has been achieved in  13 iterations

     Writing all to output data dir ./Ptbulk.save/
 
     init_run     :     12.31s CPU     12.34s WALL (       1 calls)
     electrons    :     10.87s CPU     11.26s WALL (       1 calls)

     Called by init_run:
     wfcinit      :      0.08s CPU      0.08s WALL (       1 calls)
     potinit      :     11.19s CPU     11.21s WALL (       1 calls)
     hinit0       :      1.00s CPU      1.01s WALL (       1 calls)

     Called by electrons:
     c_bands      :      4.85s CPU      4.85s WALL (      14 calls)
     sum_band     :      0.81s CPU      0.82s WALL (      14 calls)
     v_of_rho     :     14.93s CPU     15.28s WALL (      14 calls)
     newd         :      0.24s CPU      0.23s WALL (      14 calls)
     mix_rho      :      0.11s CPU      0.12s WALL (      14 calls)
     vdW_kernel   :      9.71s CPU      9.70s WALL (       1 calls)

     Called by c_bands:
     init_us_2    :      0.08s CPU      0.08s WALL (      58 calls)
     init_us_2:cp :      0.08s CPU      0.08s WALL (      58 calls)
     ccgdiagg     :      3.46s CPU      3.46s WALL (      28 calls)
     wfcrot       :      0.94s CPU      0.93s WALL (      26 calls)

     Called by *cgdiagg:
     h_psi        :      4.02s CPU      3.91s WALL (     834 calls)
     s_psi        :      0.13s CPU      0.15s WALL (    1642 calls)

     Called by h_psi:
     h_psi:calbec :      0.14s CPU      0.14s WALL (     834 calls)
     vloc_psi     :      3.76s CPU      3.65s WALL (     834 calls)
     add_vuspsi   :      0.08s CPU      0.09s WALL (     834 calls)
     hs_1psi      :      3.17s CPU      3.14s WALL (     808 calls)
     s_1psi       :      0.19s CPU      0.15s WALL (     808 calls)

     General routines
     calbec       :      0.21s CPU      0.22s WALL (    1670 calls)
     fft          :      1.40s CPU      1.39s WALL (     855 calls)
     ffts         :      0.01s CPU      0.02s WALL (      14 calls)
     fftw         :      3.72s CPU      3.58s WALL (    2336 calls)
 
     Parallel routines
 
     PWSCF        :     23.36s CPU     25.09s WALL

 
   This run was terminated on:  10:37:15   7Oct2022            

=------------------------------------------------------------------------------=
   JOB DONE.
=------------------------------------------------------------------------------=
