
     Program PWSCF v.7.1 starts on  7Oct2022 at 11: 1:52 

     This program is part of the open-source Quantum ESPRESSO suite
     for quantum simulation of materials; please cite
         "P. Giannozzi et al., J. Phys.:Condens. Matter 21 395502 (2009);
         "P. Giannozzi et al., J. Phys.:Condens. Matter 29 465901 (2017);
         "P. Giannozzi et al., J. Chem. Phys. 152 154105 (2020);
          URL http://www.quantum-espresso.org", 
     in publications or presentations arising from this work. More details at
     http://www.quantum-espresso.org/quote

     Parallel version (MPI), running on    24 processors

     MPI processes distributed on     3 nodes
     18700 MiB available memory on the printing compute node when the environment starts
 
     Waiting for input...
     Reading input from standard input

     Current dimensions of program PWSCF are:
     Max number of different atomic species (ntypx) = 10
     Max number of k-points (npk) =  40000
     Max angular momentum in pseudopotentials (lmaxx) =  4
     file Pt.pbe-n-rrkjus_psl.1.0.0.UPF: wavefunction(s)  6S renormalized

     **************************************************************************
     Initializing libbeef V0.1.2 with the BEEF-vdW functional.
     Citation: Wellendorff et al., PRB 85, 235149 (2012).
     **************************************************************************


     IMPORTANT: XC functional enforced from input :
     Exchange-correlation= BEEF-VDW
                           (   1   4  43  14   2   0   0)
     Any further DFT definition will be discarded
     Please, verify this is what you really want

 
     K-points division:     npool     =      24
     Subspace diagonalization in iterative solution of the eigenvalue problem:
     a serial algorithm will be used

 
     G-vector sticks info
     --------------------
     sticks:   dense  smooth     PW     G-vecs:    dense   smooth      PW
     Sum        1345    1345    385                32647    32647    5065
 
     Using Slab Decomposition
 


     bravais-lattice index     =            2
     lattice parameter (alat)  =       7.5700  a.u.
     unit-cell volume          =     108.4495 (a.u.)^3
     number of atoms/cell      =            1
     number of atomic types    =            1
     number of electrons       =        10.00
     number of Kohn-Sham states=            9
     kinetic-energy cutoff     =     170.0000  Ry
     charge density cutoff     =     680.0000  Ry
     scf convergence threshold =      1.0E-09
     mixing beta               =       0.7000
     number of iterations used =            8  plain     mixing
     Exchange-correlation= BEEF-VDW
                           (   1   4  43  14   2   0   0)

     celldm(1)=   7.570000  celldm(2)=   0.000000  celldm(3)=   0.000000
     celldm(4)=   0.000000  celldm(5)=   0.000000  celldm(6)=   0.000000

     crystal axes: (cart. coord. in units of alat)
               a(1) = (  -0.500000   0.000000   0.500000 )  
               a(2) = (   0.000000   0.500000   0.500000 )  
               a(3) = (  -0.500000   0.500000   0.000000 )  

     reciprocal axes: (cart. coord. in units 2 pi/alat)
               b(1) = ( -1.000000 -1.000000  1.000000 )  
               b(2) = (  1.000000  1.000000  1.000000 )  
               b(3) = ( -1.000000  1.000000 -1.000000 )  


     PseudoPot. # 1 for Pt read from file:
     ./pseudo/Pt.pbe-n-rrkjus_psl.1.0.0.UPF
     MD5 check sum: 6bc887cfe28d63a5fc1f72d35a7d3ef7
     Pseudo is Ultrasoft + core correction, Zval = 10.0
     Generated using &quot;atomic&quot; code by A. Dal Corso  v.6.3
     Using radial grid of 1277 points,  6 beta functions with: 
                l(1) =   0
                l(2) =   0
                l(3) =   1
                l(4) =   1
                l(5) =   2
                l(6) =   2
     Q(r) pseudized with 0 coefficients 


     atomic species   valence    mass     pseudopotential
        Pt            10.00   195.07800     Pt( 1.00)

     48 Sym. Ops., with inversion, found



   Cartesian axes

     site n.     atom                  positions (alat units)
         1           Pt  tau(   1) = (   0.0000000   0.0000000   0.0000000  )

     number of k points=    29  Gaussian smearing, width (Ry)=  0.0200
                       cart. coord. in units 2pi/alat
        k(    1) = (   0.0000000   0.0000000   0.0000000), wk =   0.0039062
        k(    2) = (  -0.1250000   0.1250000  -0.1250000), wk =   0.0312500
        k(    3) = (  -0.2500000   0.2500000  -0.2500000), wk =   0.0312500
        k(    4) = (  -0.3750000   0.3750000  -0.3750000), wk =   0.0312500
        k(    5) = (   0.5000000  -0.5000000   0.5000000), wk =   0.0156250
        k(    6) = (   0.0000000   0.2500000   0.0000000), wk =   0.0234375
        k(    7) = (  -0.1250000   0.3750000  -0.1250000), wk =   0.0937500
        k(    8) = (  -0.2500000   0.5000000  -0.2500000), wk =   0.0937500
        k(    9) = (   0.6250000  -0.3750000   0.6250000), wk =   0.0937500
        k(   10) = (   0.5000000  -0.2500000   0.5000000), wk =   0.0937500
        k(   11) = (   0.3750000  -0.1250000   0.3750000), wk =   0.0937500
        k(   12) = (   0.2500000   0.0000000   0.2500000), wk =   0.0468750
        k(   13) = (   0.0000000   0.5000000   0.0000000), wk =   0.0234375
        k(   14) = (  -0.1250000   0.6250000  -0.1250000), wk =   0.0937500
        k(   15) = (   0.7500000  -0.2500000   0.7500000), wk =   0.0937500
        k(   16) = (   0.6250000  -0.1250000   0.6250000), wk =   0.0937500
        k(   17) = (   0.5000000   0.0000000   0.5000000), wk =   0.0468750
        k(   18) = (   0.0000000   0.7500000   0.0000000), wk =   0.0234375
        k(   19) = (   0.8750000  -0.1250000   0.8750000), wk =   0.0937500
        k(   20) = (   0.7500000   0.0000000   0.7500000), wk =   0.0468750
        k(   21) = (   0.0000000  -1.0000000   0.0000000), wk =   0.0117188
        k(   22) = (  -0.2500000   0.5000000   0.0000000), wk =   0.0937500
        k(   23) = (   0.6250000  -0.3750000   0.8750000), wk =   0.1875000
        k(   24) = (   0.5000000  -0.2500000   0.7500000), wk =   0.0937500
        k(   25) = (   0.7500000  -0.2500000   1.0000000), wk =   0.0937500
        k(   26) = (   0.6250000  -0.1250000   0.8750000), wk =   0.1875000
        k(   27) = (   0.5000000   0.0000000   0.7500000), wk =   0.0937500
        k(   28) = (  -0.2500000  -1.0000000   0.0000000), wk =   0.0468750
        k(   29) = (  -0.5000000  -1.0000000   0.0000000), wk =   0.0234375

     Dense  grid:    32647 G-vectors     FFT dimensions: (  45,  45,  45)

     Estimated max dynamical RAM per process >      29.07 MB

     Estimated total dynamical RAM >     514.32 MB

     Initial potential from superposition of free atoms

     starting charge       9.9998, renormalised to      10.0000


     %%%%%%%%%%%%%%%%%%%%%%%%%%%%%%%%%%%%%%%%%%%%%%%%%%%%%%%%%%%%%%%%%%%%%%%%
     %                                                                      %
     % You are using vdW-DF, which was implemented by the Thonhauser group. %
     % Please cite the following two papers that made this development      %
     % possible and the two reviews that describe the various versions:     %
     %                                                                      %
     %   T. Thonhauser et al., PRL 115, 136402 (2015).                      %
     %   T. Thonhauser et al., PRB 76, 125112 (2007).                       %
     %   K. Berland et al., Rep. Prog. Phys. 78, 066501 (2015).             %
     %   D.C. Langreth et al., J. Phys.: Condens. Matter 21, 084203 (2009). %
     %                                                                      %
     % If you are calculating stress with vdW-DF, please also cite:         %
     %                                                                      %
     %   R. Sabatini et al., J. Phys.: Condens. Matter 24, 424209 (2012).   %
     %                                                                      %
     %%%%%%%%%%%%%%%%%%%%%%%%%%%%%%%%%%%%%%%%%%%%%%%%%%%%%%%%%%%%%%%%%%%%%%%%

     %%%%%%%%%%%%%%%%%%%%%%%%%%%%%%%%%%%%%%%%%%%%%%%%%%%%%%%%%%%%%%%%%%%%%%%%
     %                                                                      %
     %  vdW-DF NEWS:                                                        %
     %                                                                      %
     %  * vdW-DF3 is now available. DOI: 10.1021/acs.jctc.0c00471           %
     %    use with input_dft = 'vdW-DF3-opt1' or 'vdW-DF3-opt2'             %
     %                                                                      %
     %  * Unscreened and range-separated vdW-DF hybrid functionals          %
     %    DOI: 10.1063/1.4986522 and 10.1088/1361-648X/ac2ad2               %
     %    use with input_dft = 'vdW-DF-cx0' (etc) and 'vdW-DF-ahcx'         %
     %                                                                      %
     %%%%%%%%%%%%%%%%%%%%%%%%%%%%%%%%%%%%%%%%%%%%%%%%%%%%%%%%%%%%%%%%%%%%%%%%


     Starting wfcs are    9 randomized atomic wfcs

     total cpu time spent up to now is       13.0 secs

     Self-consistent Calculation

     iteration #  1     ecut=   170.00 Ry     beta= 0.70
     CG style diagonalization
     ethr =  1.00E-02,  avg # of iterations =  3.6

     Threshold (ethr) on eigenvalues was too large:
     Diagonalizing with lowered threshold

     CG style diagonalization
     c_bands:  1 eigenvalues not converged
     ethr =  1.10E-04,  avg # of iterations =  5.9

     total cpu time spent up to now is       14.5 secs

     total energy              =     -66.16448814 Ry
     estimated scf accuracy    <       0.03222595 Ry

     iteration #  2     ecut=   170.00 Ry     beta= 0.70
     CG style diagonalization
     ethr =  3.22E-04,  avg # of iterations =  3.2

     total cpu time spent up to now is       15.3 secs

     total energy              =     -66.17059287 Ry
     estimated scf accuracy    <       0.00173700 Ry

     iteration #  3     ecut=   170.00 Ry     beta= 0.70
     CG style diagonalization
     ethr =  1.74E-05,  avg # of iterations =  4.7

     total cpu time spent up to now is       16.2 secs

     total energy              =     -66.17160350 Ry
     estimated scf accuracy    <       0.00014074 Ry

     iteration #  4     ecut=   170.00 Ry     beta= 0.70
     CG style diagonalization
     ethr =  1.41E-06,  avg # of iterations =  4.8

     total cpu time spent up to now is       17.1 secs

     total energy              =     -66.17166729 Ry
     estimated scf accuracy    <       0.00002100 Ry

     iteration #  5     ecut=   170.00 Ry     beta= 0.70
     CG style diagonalization
     ethr =  2.10E-07,  avg # of iterations =  4.4

     total cpu time spent up to now is       18.0 secs

     total energy              =     -66.17168817 Ry
     estimated scf accuracy    <       0.00000784 Ry

     iteration #  6     ecut=   170.00 Ry     beta= 0.70
     CG style diagonalization
     ethr =  7.84E-08,  avg # of iterations =  3.3

     total cpu time spent up to now is       18.8 secs

     total energy              =     -66.17168955 Ry
     estimated scf accuracy    <       0.00000068 Ry

     iteration #  7     ecut=   170.00 Ry     beta= 0.70
     CG style diagonalization
     ethr =  6.82E-09,  avg # of iterations =  4.1

     total cpu time spent up to now is       19.6 secs

     total energy              =     -66.17169006 Ry
     estimated scf accuracy    <          6.5E-09 Ry

     iteration #  8     ecut=   170.00 Ry     beta= 0.70
     CG style diagonalization
     ethr =  6.51E-11,  avg # of iterations =  5.9

     total cpu time spent up to now is       20.6 secs

     total energy              =     -66.17169011 Ry
     estimated scf accuracy    <          5.7E-09 Ry

     iteration #  9     ecut=   170.00 Ry     beta= 0.70
     CG style diagonalization
     ethr =  5.68E-11,  avg # of iterations =  3.3

     total cpu time spent up to now is       21.4 secs

     End of self-consistent calculation

          k = 0.0000 0.0000 0.0000 (  4015 PWs)   bands (ev):

     6.5898  12.4923  12.4923  12.4923  14.3707  14.3707  31.7489  36.2809
    36.2809

          k =-0.1250 0.1250-0.1250 (  4035 PWs)   bands (ev):

     7.1620  12.2880  12.6908  12.6908  14.2899  14.2899  32.4326  33.5448
    37.0139

          k =-0.2500 0.2500-0.2500 (  4050 PWs)   bands (ev):

     8.5168  12.2276  12.8241  12.8241  14.5561  14.5561  29.1230  33.0398
    38.2021

          k =-0.3750 0.3750-0.3750 (  4062 PWs)   bands (ev):

     9.2738  12.5695  12.5695  13.8526  15.4037  15.4037  24.3567  31.7462
    36.3328

          k = 0.5000-0.5000 0.5000 (  4092 PWs)   bands (ev):

     9.3191  12.4268  12.4268  15.8642  15.8642  15.8930  21.3438  31.1406
    35.1751

          k = 0.0000 0.2500 0.0000 (  4047 PWs)   bands (ev):

     7.3569  12.0446  12.8828  12.8828  13.8875  14.5642  32.7983  34.5674
    35.7834

          k =-0.1250 0.3750-0.1250 (  4042 PWs)   bands (ev):

     8.5124  11.6913  12.9436  13.2046  14.0314  14.8650  31.0054  33.7191
    35.1313

          k =-0.2500 0.5000-0.2500 (  4062 PWs)   bands (ev):

     9.6027  12.2120  12.4369  13.0689  15.5602  15.5688  26.1087  32.6238
    34.2241

          k = 0.6250-0.3750 0.6250 (  4053 PWs)   bands (ev):

     9.7503  12.1159  12.8260  13.7026  15.8957  17.8794  21.7582  31.6225
    34.0555

          k = 0.5000-0.2500 0.5000 (  4051 PWs)   bands (ev):

     9.7796  12.2201  12.8176  13.4994  15.2820  17.3586  23.1054  31.5431
    33.2901

          k = 0.3750-0.1250 0.3750 (  4046 PWs)   bands (ev):

     9.4036  12.0029  12.6562  13.0867  14.2025  15.8400  27.7841  32.2367
    34.6656

          k = 0.2500 0.0000 0.2500 (  4043 PWs)   bands (ev):

     8.0444  11.9556  12.8918  13.0199  13.8507  14.7640  31.7906  32.9539
    35.7268

          k = 0.0000 0.5000 0.0000 (  4064 PWs)   bands (ev):

     9.1826  11.0928  13.2275  13.9836  13.9836  15.0541  32.8047  32.8047
    33.6218

          k =-0.1250 0.6250-0.1250 (  4059 PWs)   bands (ev):

     9.9945  10.8638  12.9499  14.1946  15.6449  15.7075  28.1360  31.3599
    31.8293

          k = 0.7500-0.2500 0.7500 (  4069 PWs)   bands (ev):

    10.3002  11.3473  12.7832  13.9123  15.9779  18.8391  23.2238  29.6358
    31.4036

          k = 0.6250-0.1250 0.6250 (  4056 PWs)   bands (ev):

    10.6326  11.6693  12.6516  13.6832  15.3351  19.6987  22.8350  27.9389
    33.3963

          k = 0.5000 0.0000 0.5000 (  4069 PWs)   bands (ev):

    10.7003  11.7672  12.1270  13.5793  14.3374  17.6225  26.4863  28.3878
    34.1371

          k = 0.0000 0.7500 0.0000 (  4064 PWs)   bands (ev):

     9.7756  10.2739  15.2037  15.4546  15.4546  15.5810  28.3621  29.1683
    29.1683

          k = 0.8750-0.1250 0.8750 (  4058 PWs)   bands (ev):

     9.8714  10.2999  14.5820  15.2447  16.0961  18.7449  24.6198  27.3491
    28.7237

          k = 0.7500 0.0000 0.7500 (  4065 PWs)   bands (ev):

    10.2915  11.0083  13.3893  14.6800  15.7020  21.6657  22.4437  25.5548
    30.4724

          k = 0.0000-1.0000 0.0000 (  4088 PWs)   bands (ev):

     9.5521   9.9641  15.8119  16.2726  16.2726  18.0451  24.2207  27.5300
    27.5300

          k =-0.2500 0.5000 0.0000 (  4053 PWs)   bands (ev):

     9.7192  11.3359  12.4921  13.9894  14.0568  15.8847  29.2691  31.1916
    34.0435

          k = 0.6250-0.3750 0.8750 (  4059 PWs)   bands (ev):

    10.4746  11.7912  12.0531  13.7188  15.2110  17.7145  24.9624  29.9852
    32.2035

          k = 0.5000-0.2500 0.7500 (  4044 PWs)   bands (ev):

    10.4905  11.5951  12.8603  13.4769  15.6795  20.2707  21.1736  30.2896
    30.9896

          k = 0.7500-0.2500 1.0000 (  4069 PWs)   bands (ev):

    10.3528  10.6932  12.9838  15.0334  15.4449  17.9191  26.2612  28.1167
    29.8048

          k = 0.6250-0.1250 0.8750 (  4068 PWs)   bands (ev):

    10.6549  11.1805  12.6120  14.3946  15.9103  21.0663  22.9057  26.7971
    29.0516

          k = 0.5000 0.0000 0.7500 (  4068 PWs)   bands (ev):

    11.1900  11.4967  11.8724  14.1350  15.4539  19.9085  25.1307  25.4937
    30.6418

          k =-0.2500-1.0000 0.0000 (  4062 PWs)   bands (ev):

    10.0801  10.4403  14.0577  15.0891  16.2740  20.7058  23.3868  26.6080
    27.5406

          k =-0.5000-1.0000 0.0000 (  4056 PWs)   bands (ev):

    10.8372  11.8403  11.8403  14.1057  16.2755  22.8225  24.0518  24.0518
    27.4919

     the Fermi energy is    15.8170 ev

!    total energy              =     -66.17169012 Ry
     estimated scf accuracy    <          2.0E-10 Ry
     smearing contrib. (-TS)   =      -0.00560199 Ry
     internal energy E=F+TS    =     -66.16608812 Ry

     The total energy is F=E-TS. E is the sum of the following terms:
     one-electron contribution =      14.46432387 Ry
     hartree contribution      =       4.67503467 Ry
     xc contribution           =     -24.73923697 Ry
     ewald contribution        =     -60.56620970 Ry

     convergence has been achieved in   9 iterations

     Writing all to output data dir ./Ptbulk.save/
 
     init_run     :     12.62s CPU     12.69s WALL (       1 calls)
     electrons    :      8.14s CPU      8.81s WALL (       1 calls)

     Called by init_run:
     wfcinit      :      0.09s CPU      0.08s WALL (       1 calls)
     potinit      :     11.51s CPU     11.56s WALL (       1 calls)
     hinit0       :      1.00s CPU      1.01s WALL (       1 calls)

     Called by electrons:
     c_bands      :      3.85s CPU      3.85s WALL (      10 calls)
     sum_band     :      0.59s CPU      0.59s WALL (      10 calls)
     v_of_rho     :     13.53s CPU     13.73s WALL (      10 calls)
     newd         :      0.16s CPU      0.16s WALL (      10 calls)
     mix_rho      :      0.08s CPU      0.07s WALL (      10 calls)
     vdW_kernel   :      9.70s CPU      9.70s WALL (       1 calls)

     Called by c_bands:
     init_us_2    :      0.08s CPU      0.06s WALL (      42 calls)
     init_us_2:cp :      0.08s CPU      0.06s WALL (      42 calls)
     ccgdiagg     :      2.75s CPU      2.76s WALL (      20 calls)
     wfcrot       :      0.68s CPU      0.65s WALL (      18 calls)

     Called by *cgdiagg:
     h_psi        :      3.05s CPU      3.00s WALL (     658 calls)
     s_psi        :      0.14s CPU      0.12s WALL (    1298 calls)

     Called by h_psi:
     h_psi:calbec :      0.16s CPU      0.11s WALL (     658 calls)
     vloc_psi     :      2.76s CPU      2.78s WALL (     658 calls)
     add_vuspsi   :      0.10s CPU      0.07s WALL (     658 calls)
     hs_1psi      :      2.48s CPU      2.48s WALL (     640 calls)
     s_1psi       :      0.16s CPU      0.13s WALL (     640 calls)

     General routines
     calbec       :      0.25s CPU      0.18s WALL (    1318 calls)
     fft          :      0.99s CPU      0.99s WALL (     611 calls)
     ffts         :      0.00s CPU      0.02s WALL (      10 calls)
     fftw         :      2.69s CPU      2.72s WALL (    1784 calls)
 
     Parallel routines
 
     PWSCF        :     20.93s CPU     22.90s WALL

 
   This run was terminated on:  11: 2:15   7Oct2022            

=------------------------------------------------------------------------------=
   JOB DONE.
=------------------------------------------------------------------------------=
