
     Program PWSCF v.7.1 starts on  7Oct2022 at 10:19:54 

     This program is part of the open-source Quantum ESPRESSO suite
     for quantum simulation of materials; please cite
         "P. Giannozzi et al., J. Phys.:Condens. Matter 21 395502 (2009);
         "P. Giannozzi et al., J. Phys.:Condens. Matter 29 465901 (2017);
         "P. Giannozzi et al., J. Chem. Phys. 152 154105 (2020);
          URL http://www.quantum-espresso.org", 
     in publications or presentations arising from this work. More details at
     http://www.quantum-espresso.org/quote

     Parallel version (MPI), running on    24 processors

     MPI processes distributed on     3 nodes
     73922 MiB available memory on the printing compute node when the environment starts
 
     Waiting for input...
     Reading input from standard input

     Current dimensions of program PWSCF are:
     Max number of different atomic species (ntypx) = 10
     Max number of k-points (npk) =  40000
     Max angular momentum in pseudopotentials (lmaxx) =  4
     file Pt.pbe-n-rrkjus_psl.1.0.0.UPF: wavefunction(s)  6S renormalized

     **************************************************************************
     Initializing libbeef V0.1.2 with the BEEF-vdW functional.
     Citation: Wellendorff et al., PRB 85, 235149 (2012).
     **************************************************************************


     IMPORTANT: XC functional enforced from input :
     Exchange-correlation= BEEF-VDW
                           (   1   4  43  14   2   0   0)
     Any further DFT definition will be discarded
     Please, verify this is what you really want

 
     K-points division:     npool     =      24
     Subspace diagonalization in iterative solution of the eigenvalue problem:
     a serial algorithm will be used

 
     G-vector sticks info
     --------------------
     sticks:   dense  smooth     PW     G-vecs:    dense   smooth      PW
     Sum        1285    1285    379                30731    30731    4909
 
     Using Slab Decomposition
 


     bravais-lattice index     =            2
     lattice parameter (alat)  =       7.4240  a.u.
     unit-cell volume          =     102.2949 (a.u.)^3
     number of atoms/cell      =            1
     number of atomic types    =            1
     number of electrons       =        10.00
     number of Kohn-Sham states=            9
     kinetic-energy cutoff     =     170.0000  Ry
     charge density cutoff     =     680.0000  Ry
     scf convergence threshold =      1.0E-09
     mixing beta               =       0.7000
     number of iterations used =            8  plain     mixing
     Exchange-correlation= BEEF-VDW
                           (   1   4  43  14   2   0   0)

     celldm(1)=   7.424000  celldm(2)=   0.000000  celldm(3)=   0.000000
     celldm(4)=   0.000000  celldm(5)=   0.000000  celldm(6)=   0.000000

     crystal axes: (cart. coord. in units of alat)
               a(1) = (  -0.500000   0.000000   0.500000 )  
               a(2) = (   0.000000   0.500000   0.500000 )  
               a(3) = (  -0.500000   0.500000   0.000000 )  

     reciprocal axes: (cart. coord. in units 2 pi/alat)
               b(1) = ( -1.000000 -1.000000  1.000000 )  
               b(2) = (  1.000000  1.000000  1.000000 )  
               b(3) = ( -1.000000  1.000000 -1.000000 )  


     PseudoPot. # 1 for Pt read from file:
     ./pseudo/Pt.pbe-n-rrkjus_psl.1.0.0.UPF
     MD5 check sum: 6bc887cfe28d63a5fc1f72d35a7d3ef7
     Pseudo is Ultrasoft + core correction, Zval = 10.0
     Generated using &quot;atomic&quot; code by A. Dal Corso  v.6.3
     Using radial grid of 1277 points,  6 beta functions with: 
                l(1) =   0
                l(2) =   0
                l(3) =   1
                l(4) =   1
                l(5) =   2
                l(6) =   2
     Q(r) pseudized with 0 coefficients 


     atomic species   valence    mass     pseudopotential
        Pt            10.00   195.07800     Pt( 1.00)

     48 Sym. Ops., with inversion, found



   Cartesian axes

     site n.     atom                  positions (alat units)
         1           Pt  tau(   1) = (   0.0000000   0.0000000   0.0000000  )

     number of k points=    29  Gaussian smearing, width (Ry)=  0.0200
                       cart. coord. in units 2pi/alat
        k(    1) = (   0.0000000   0.0000000   0.0000000), wk =   0.0039062
        k(    2) = (  -0.1250000   0.1250000  -0.1250000), wk =   0.0312500
        k(    3) = (  -0.2500000   0.2500000  -0.2500000), wk =   0.0312500
        k(    4) = (  -0.3750000   0.3750000  -0.3750000), wk =   0.0312500
        k(    5) = (   0.5000000  -0.5000000   0.5000000), wk =   0.0156250
        k(    6) = (   0.0000000   0.2500000   0.0000000), wk =   0.0234375
        k(    7) = (  -0.1250000   0.3750000  -0.1250000), wk =   0.0937500
        k(    8) = (  -0.2500000   0.5000000  -0.2500000), wk =   0.0937500
        k(    9) = (   0.6250000  -0.3750000   0.6250000), wk =   0.0937500
        k(   10) = (   0.5000000  -0.2500000   0.5000000), wk =   0.0937500
        k(   11) = (   0.3750000  -0.1250000   0.3750000), wk =   0.0937500
        k(   12) = (   0.2500000   0.0000000   0.2500000), wk =   0.0468750
        k(   13) = (   0.0000000   0.5000000   0.0000000), wk =   0.0234375
        k(   14) = (  -0.1250000   0.6250000  -0.1250000), wk =   0.0937500
        k(   15) = (   0.7500000  -0.2500000   0.7500000), wk =   0.0937500
        k(   16) = (   0.6250000  -0.1250000   0.6250000), wk =   0.0937500
        k(   17) = (   0.5000000   0.0000000   0.5000000), wk =   0.0468750
        k(   18) = (   0.0000000   0.7500000   0.0000000), wk =   0.0234375
        k(   19) = (   0.8750000  -0.1250000   0.8750000), wk =   0.0937500
        k(   20) = (   0.7500000   0.0000000   0.7500000), wk =   0.0468750
        k(   21) = (   0.0000000  -1.0000000   0.0000000), wk =   0.0117188
        k(   22) = (  -0.2500000   0.5000000   0.0000000), wk =   0.0937500
        k(   23) = (   0.6250000  -0.3750000   0.8750000), wk =   0.1875000
        k(   24) = (   0.5000000  -0.2500000   0.7500000), wk =   0.0937500
        k(   25) = (   0.7500000  -0.2500000   1.0000000), wk =   0.0937500
        k(   26) = (   0.6250000  -0.1250000   0.8750000), wk =   0.1875000
        k(   27) = (   0.5000000   0.0000000   0.7500000), wk =   0.0937500
        k(   28) = (  -0.2500000  -1.0000000   0.0000000), wk =   0.0468750
        k(   29) = (  -0.5000000  -1.0000000   0.0000000), wk =   0.0234375

     Dense  grid:    30731 G-vectors     FFT dimensions: (  45,  45,  45)

     Estimated max dynamical RAM per process >      27.86 MB

     Estimated total dynamical RAM >     496.02 MB

     Initial potential from superposition of free atoms

     starting charge       9.9998, renormalised to      10.0000


     %%%%%%%%%%%%%%%%%%%%%%%%%%%%%%%%%%%%%%%%%%%%%%%%%%%%%%%%%%%%%%%%%%%%%%%%
     %                                                                      %
     % You are using vdW-DF, which was implemented by the Thonhauser group. %
     % Please cite the following two papers that made this development      %
     % possible and the two reviews that describe the various versions:     %
     %                                                                      %
     %   T. Thonhauser et al., PRL 115, 136402 (2015).                      %
     %   T. Thonhauser et al., PRB 76, 125112 (2007).                       %
     %   K. Berland et al., Rep. Prog. Phys. 78, 066501 (2015).             %
     %   D.C. Langreth et al., J. Phys.: Condens. Matter 21, 084203 (2009). %
     %                                                                      %
     % If you are calculating stress with vdW-DF, please also cite:         %
     %                                                                      %
     %   R. Sabatini et al., J. Phys.: Condens. Matter 24, 424209 (2012).   %
     %                                                                      %
     %%%%%%%%%%%%%%%%%%%%%%%%%%%%%%%%%%%%%%%%%%%%%%%%%%%%%%%%%%%%%%%%%%%%%%%%

     %%%%%%%%%%%%%%%%%%%%%%%%%%%%%%%%%%%%%%%%%%%%%%%%%%%%%%%%%%%%%%%%%%%%%%%%
     %                                                                      %
     %  vdW-DF NEWS:                                                        %
     %                                                                      %
     %  * vdW-DF3 is now available. DOI: 10.1021/acs.jctc.0c00471           %
     %    use with input_dft = 'vdW-DF3-opt1' or 'vdW-DF3-opt2'             %
     %                                                                      %
     %  * Unscreened and range-separated vdW-DF hybrid functionals          %
     %    DOI: 10.1063/1.4986522 and 10.1088/1361-648X/ac2ad2               %
     %    use with input_dft = 'vdW-DF-cx0' (etc) and 'vdW-DF-ahcx'         %
     %                                                                      %
     %%%%%%%%%%%%%%%%%%%%%%%%%%%%%%%%%%%%%%%%%%%%%%%%%%%%%%%%%%%%%%%%%%%%%%%%


     Starting wfcs are    9 randomized atomic wfcs

     total cpu time spent up to now is       14.7 secs

     Self-consistent Calculation

     iteration #  1     ecut=   170.00 Ry     beta= 0.70
     CG style diagonalization
     ethr =  1.00E-02,  avg # of iterations =  3.7

     Threshold (ethr) on eigenvalues was too large:
     Diagonalizing with lowered threshold

     CG style diagonalization
     ethr =  1.03E-04,  avg # of iterations =  6.0

     total cpu time spent up to now is       16.5 secs

     total energy              =     -66.16251893 Ry
     estimated scf accuracy    <       0.03099133 Ry

     iteration #  2     ecut=   170.00 Ry     beta= 0.70
     CG style diagonalization
     ethr =  3.10E-04,  avg # of iterations =  3.1

     total cpu time spent up to now is       17.3 secs

     total energy              =     -66.16764409 Ry
     estimated scf accuracy    <       0.00096776 Ry

     iteration #  3     ecut=   170.00 Ry     beta= 0.70
     CG style diagonalization
     ethr =  9.68E-06,  avg # of iterations =  5.6

     total cpu time spent up to now is       18.5 secs

     total energy              =     -66.16857036 Ry
     estimated scf accuracy    <       0.00018406 Ry

     iteration #  4     ecut=   170.00 Ry     beta= 0.70
     CG style diagonalization
     ethr =  1.84E-06,  avg # of iterations =  4.2

     total cpu time spent up to now is       19.4 secs

     total energy              =     -66.16858604 Ry
     estimated scf accuracy    <       0.00010388 Ry

     iteration #  5     ecut=   170.00 Ry     beta= 0.70
     CG style diagonalization
     ethr =  1.04E-06,  avg # of iterations =  3.5

     total cpu time spent up to now is       20.3 secs

     total energy              =     -66.16861905 Ry
     estimated scf accuracy    <       0.00000217 Ry

     iteration #  6     ecut=   170.00 Ry     beta= 0.70
     CG style diagonalization
     ethr =  2.17E-08,  avg # of iterations =  4.8

     total cpu time spent up to now is       21.4 secs

     total energy              =     -66.16862372 Ry
     estimated scf accuracy    <       0.00000095 Ry

     iteration #  7     ecut=   170.00 Ry     beta= 0.70
     CG style diagonalization
     ethr =  9.47E-09,  avg # of iterations =  3.2

     total cpu time spent up to now is       22.2 secs

     total energy              =     -66.16862324 Ry
     estimated scf accuracy    <       0.00000151 Ry

     iteration #  8     ecut=   170.00 Ry     beta= 0.70
     CG style diagonalization
     ethr =  9.47E-09,  avg # of iterations =  3.0

     total cpu time spent up to now is       23.1 secs

     total energy              =     -66.16862321 Ry
     estimated scf accuracy    <       0.00000036 Ry

     iteration #  9     ecut=   170.00 Ry     beta= 0.70
     CG style diagonalization
     ethr =  3.60E-09,  avg # of iterations =  3.2

     total cpu time spent up to now is       23.9 secs

     total energy              =     -66.16862322 Ry
     estimated scf accuracy    <       0.00000007 Ry

     iteration # 10     ecut=   170.00 Ry     beta= 0.70
     CG style diagonalization
     ethr =  6.68E-10,  avg # of iterations =  4.5

     total cpu time spent up to now is       25.0 secs

     total energy              =     -66.16862327 Ry
     estimated scf accuracy    <       0.00000001 Ry

     iteration # 11     ecut=   170.00 Ry     beta= 0.70
     CG style diagonalization
     ethr =  1.38E-10,  avg # of iterations =  3.4

     total cpu time spent up to now is       25.8 secs

     End of self-consistent calculation

          k = 0.0000 0.0000 0.0000 (  3839 PWs)   bands (ev):

     7.3740  13.5698  13.5698  13.5698  15.6446  15.6446  33.1221  38.0086
    38.0086

          k =-0.1250 0.1250-0.1250 (  3789 PWs)   bands (ev):

     7.9785  13.3413  13.7866  13.7866  15.5515  15.5515  33.9275  35.2246
    38.8422

          k =-0.2500 0.2500-0.2500 (  3813 PWs)   bands (ev):

     9.3874  13.2731  13.9312  13.9312  15.8398  15.8398  30.9633  34.6078
    40.3886

          k =-0.3750 0.3750-0.3750 (  3837 PWs)   bands (ev):

    10.1240  13.6499  13.6499  15.0041  16.7791  16.7791  26.2181  33.1836
    38.4016

          k = 0.5000-0.5000 0.5000 (  3828 PWs)   bands (ev):

    10.1516  13.4930  13.4930  17.0804  17.2938  17.2938  23.1994  32.5170
    37.1222

          k = 0.0000 0.2500 0.0000 (  3811 PWs)   bands (ev):

     8.1846  13.0729  13.9971  13.9971  15.1024  15.8575  34.2988  36.2466
    37.6710

          k =-0.1250 0.3750-0.1250 (  3818 PWs)   bands (ev):

     9.3945  12.6836  14.0577  14.3493  15.2564  16.1866  32.8531  35.3731
    37.1877

          k =-0.2500 0.5000-0.2500 (  3817 PWs)   bands (ev):

    10.4903  13.2528  13.5024  14.1983  16.9205  16.9651  27.9792  34.2002
    36.2746

          k = 0.6250-0.3750 0.6250 (  3824 PWs)   bands (ev):

    10.6140  13.1436  13.9300  14.8606  17.3289  19.3417  23.5700  33.1612
    36.0321

          k = 0.5000-0.2500 0.5000 (  3821 PWs)   bands (ev):

    10.6527  13.2596  13.9202  14.6372  16.6420  18.8570  24.9327  33.1957
    35.1351

          k = 0.3750-0.1250 0.3750 (  3815 PWs)   bands (ev):

    10.3079  13.0294  13.7380  14.2167  15.4453  17.2540  29.6633  34.0799
    36.5153

          k = 0.2500 0.0000 0.2500 (  3829 PWs)   bands (ev):

     8.9070  12.9736  14.0045  14.1462  15.0604  16.0733  33.5395  34.7001
    37.5474

          k = 0.0000 0.5000 0.0000 (  3831 PWs)   bands (ev):

    10.0822  12.0265  14.3682  15.2042  15.2042  16.3981  34.7928  34.7929
    35.3554

          k =-0.1250 0.6250-0.1250 (  3839 PWs)   bands (ev):

    10.8889  11.7800  14.0672  15.4366  17.0513  17.0780  30.0239  33.2814
    33.7900

          k = 0.7500-0.2500 0.7500 (  3844 PWs)   bands (ev):

    11.1838  12.3018  13.8835  15.1232  17.4206  20.4161  24.9510  31.5968
    33.3156

          k = 0.6250-0.1250 0.6250 (  3834 PWs)   bands (ev):

    11.5495  12.6514  13.7313  14.8692  16.7004  21.3080  24.6223  29.8595
    35.4417

          k = 0.5000 0.0000 0.5000 (  3803 PWs)   bands (ev):

    11.6635  12.7692  13.1488  14.7543  15.5943  19.1796  28.3278  30.3780
    35.8222

          k = 0.0000 0.7500 0.0000 (  3840 PWs)   bands (ev):

    10.6164  11.1344  16.4636  16.8300  16.8300  16.9825  30.4549  30.9536
    30.9536

          k = 0.8750-0.1250 0.8750 (  3844 PWs)   bands (ev):

    10.7022  11.1657  15.8348  16.6006  17.5514  20.2683  26.4452  29.2231
    30.4749

          k = 0.7500 0.0000 0.7500 (  3851 PWs)   bands (ev):

    11.1550  11.9384  14.5367  15.9702  17.1090  23.3371  24.1417  27.4658
    32.3555

          k = 0.0000-1.0000 0.0000 (  3860 PWs)   bands (ev):

    10.3543  10.7985  17.2395  17.7472  17.7472  19.3610  26.2577  29.1843
    29.1843

          k =-0.2500 0.5000 0.0000 (  3833 PWs)   bands (ev):

    10.6489  12.2944  13.5572  15.2104  15.2820  17.3039  31.1480  33.2198
    35.8816

          k = 0.6250-0.3750 0.8750 (  3832 PWs)   bands (ev):

    11.3982  12.7831  13.0882  14.9085  16.5583  19.2592  26.7847  31.9415
    34.0384

          k = 0.5000-0.2500 0.7500 (  3824 PWs)   bands (ev):

    11.4043  12.5665  13.9556  14.6427  17.0842  21.8378  22.9581  32.2895
    32.8088

          k = 0.7500-0.2500 1.0000 (  3835 PWs)   bands (ev):

    11.2358  11.5947  14.1023  16.3573  16.8196  19.4593  28.0963  29.9585
    31.7556

          k = 0.6250-0.1250 0.8750 (  3831 PWs)   bands (ev):

    11.5497  12.1265  13.6933  15.6509  17.3404  22.7731  24.5959  28.7021
    30.9386

          k = 0.5000 0.0000 0.7500 (  3837 PWs)   bands (ev):

    12.1279  12.4840  12.8850  15.3639  16.8308  21.5492  26.9739  27.3271
    32.5901

          k =-0.2500-1.0000 0.0000 (  3832 PWs)   bands (ev):

    10.9231  11.3204  15.2649  16.4244  17.7489  22.2785  25.2760  28.3183
    29.3771

          k =-0.5000-1.0000 0.0000 (  3852 PWs)   bands (ev):

    11.7388  12.8500  12.8500  15.3303  17.7505  24.6656  25.7685  25.7685
    29.3930

     the Fermi energy is    17.2269 ev

!    total energy              =     -66.16862327 Ry
     estimated scf accuracy    <          8.9E-10 Ry
     smearing contrib. (-TS)   =      -0.00509520 Ry
     internal energy E=F+TS    =     -66.16352808 Ry

     The total energy is F=E-TS. E is the sum of the following terms:
     one-electron contribution =      16.07756422 Ry
     hartree contribution      =       4.31116911 Ry
     xc contribution           =     -24.79495976 Ry
     ewald contribution        =     -61.75730164 Ry

     convergence has been achieved in  11 iterations

     Writing all to output data dir ./Ptbulk.save/
 
     init_run     :     14.16s CPU     14.22s WALL (       1 calls)
     electrons    :     10.84s CPU     11.20s WALL (       1 calls)

     Called by init_run:
     wfcinit      :      0.09s CPU      0.09s WALL (       1 calls)
     potinit      :     12.87s CPU     12.91s WALL (       1 calls)
     hinit0       :      1.17s CPU      1.18s WALL (       1 calls)

     Called by electrons:
     c_bands      :      4.98s CPU      5.00s WALL (      12 calls)
     sum_band     :      0.82s CPU      0.82s WALL (      12 calls)
     v_of_rho     :     16.53s CPU     16.80s WALL (      12 calls)
     newd         :      0.15s CPU      0.18s WALL (      12 calls)
     mix_rho      :      0.08s CPU      0.11s WALL (      12 calls)
     vdW_kernel   :     11.33s CPU     11.33s WALL (       1 calls)

     Called by c_bands:
     init_us_2    :      0.10s CPU      0.08s WALL (      50 calls)
     init_us_2:cp :      0.10s CPU      0.08s WALL (      50 calls)
     ccgdiagg     :      3.46s CPU      3.46s WALL (      24 calls)
     wfcrot       :      0.92s CPU      0.92s WALL (      22 calls)

     Called by *cgdiagg:
     h_psi        :      3.75s CPU      3.89s WALL (     714 calls)
     s_psi        :      0.29s CPU      0.15s WALL (    1406 calls)

     Called by h_psi:
     h_psi:calbec :      0.11s CPU      0.13s WALL (     714 calls)
     vloc_psi     :      3.45s CPU      3.64s WALL (     714 calls)
     add_vuspsi   :      0.12s CPU      0.09s WALL (     714 calls)
     hs_1psi      :      3.15s CPU      3.13s WALL (     692 calls)
     s_1psi       :      0.13s CPU      0.16s WALL (     692 calls)

     General routines
     calbec       :      0.18s CPU      0.22s WALL (    1430 calls)
     fft          :      1.38s CPU      1.38s WALL (     733 calls)
     ffts         :      0.01s CPU      0.02s WALL (      12 calls)
     fftw         :      3.22s CPU      3.56s WALL (    1996 calls)
 
     Parallel routines
 
     PWSCF        :     25.19s CPU     27.60s WALL

 
   This run was terminated on:  10:20:22   7Oct2022            

=------------------------------------------------------------------------------=
   JOB DONE.
=------------------------------------------------------------------------------=
