
     Program PWSCF v.7.1 starts on  7Oct2022 at 10:19:54 

     This program is part of the open-source Quantum ESPRESSO suite
     for quantum simulation of materials; please cite
         "P. Giannozzi et al., J. Phys.:Condens. Matter 21 395502 (2009);
         "P. Giannozzi et al., J. Phys.:Condens. Matter 29 465901 (2017);
         "P. Giannozzi et al., J. Chem. Phys. 152 154105 (2020);
          URL http://www.quantum-espresso.org", 
     in publications or presentations arising from this work. More details at
     http://www.quantum-espresso.org/quote

     Parallel version (MPI), running on    24 processors

     MPI processes distributed on     3 nodes
     86961 MiB available memory on the printing compute node when the environment starts
 
     Waiting for input...
     Reading input from standard input

     Current dimensions of program PWSCF are:
     Max number of different atomic species (ntypx) = 10
     Max number of k-points (npk) =  40000
     Max angular momentum in pseudopotentials (lmaxx) =  4
     file Pt.pbe-n-rrkjus_psl.1.0.0.UPF: wavefunction(s)  6S renormalized

     **************************************************************************
     Initializing libbeef V0.1.2 with the BEEF-vdW functional.
     Citation: Wellendorff et al., PRB 85, 235149 (2012).
     **************************************************************************


     IMPORTANT: XC functional enforced from input :
     Exchange-correlation= BEEF-VDW
                           (   1   4  43  14   2   0   0)
     Any further DFT definition will be discarded
     Please, verify this is what you really want

 
     K-points division:     npool     =      24
     Subspace diagonalization in iterative solution of the eigenvalue problem:
     a serial algorithm will be used

 
     G-vector sticks info
     --------------------
     sticks:   dense  smooth     PW     G-vecs:    dense   smooth      PW
     Sum        1285    1285    379                30827    30827    4909
 
     Using Slab Decomposition
 


     bravais-lattice index     =            2
     lattice parameter (alat)  =       7.4360  a.u.
     unit-cell volume          =     102.7917 (a.u.)^3
     number of atoms/cell      =            1
     number of atomic types    =            1
     number of electrons       =        10.00
     number of Kohn-Sham states=            9
     kinetic-energy cutoff     =     170.0000  Ry
     charge density cutoff     =     680.0000  Ry
     scf convergence threshold =      1.0E-09
     mixing beta               =       0.7000
     number of iterations used =            8  plain     mixing
     Exchange-correlation= BEEF-VDW
                           (   1   4  43  14   2   0   0)

     celldm(1)=   7.436000  celldm(2)=   0.000000  celldm(3)=   0.000000
     celldm(4)=   0.000000  celldm(5)=   0.000000  celldm(6)=   0.000000

     crystal axes: (cart. coord. in units of alat)
               a(1) = (  -0.500000   0.000000   0.500000 )  
               a(2) = (   0.000000   0.500000   0.500000 )  
               a(3) = (  -0.500000   0.500000   0.000000 )  

     reciprocal axes: (cart. coord. in units 2 pi/alat)
               b(1) = ( -1.000000 -1.000000  1.000000 )  
               b(2) = (  1.000000  1.000000  1.000000 )  
               b(3) = ( -1.000000  1.000000 -1.000000 )  


     PseudoPot. # 1 for Pt read from file:
     ./pseudo/Pt.pbe-n-rrkjus_psl.1.0.0.UPF
     MD5 check sum: 6bc887cfe28d63a5fc1f72d35a7d3ef7
     Pseudo is Ultrasoft + core correction, Zval = 10.0
     Generated using &quot;atomic&quot; code by A. Dal Corso  v.6.3
     Using radial grid of 1277 points,  6 beta functions with: 
                l(1) =   0
                l(2) =   0
                l(3) =   1
                l(4) =   1
                l(5) =   2
                l(6) =   2
     Q(r) pseudized with 0 coefficients 


     atomic species   valence    mass     pseudopotential
        Pt            10.00   195.07800     Pt( 1.00)

     48 Sym. Ops., with inversion, found



   Cartesian axes

     site n.     atom                  positions (alat units)
         1           Pt  tau(   1) = (   0.0000000   0.0000000   0.0000000  )

     number of k points=    29  Gaussian smearing, width (Ry)=  0.0200
                       cart. coord. in units 2pi/alat
        k(    1) = (   0.0000000   0.0000000   0.0000000), wk =   0.0039062
        k(    2) = (  -0.1250000   0.1250000  -0.1250000), wk =   0.0312500
        k(    3) = (  -0.2500000   0.2500000  -0.2500000), wk =   0.0312500
        k(    4) = (  -0.3750000   0.3750000  -0.3750000), wk =   0.0312500
        k(    5) = (   0.5000000  -0.5000000   0.5000000), wk =   0.0156250
        k(    6) = (   0.0000000   0.2500000   0.0000000), wk =   0.0234375
        k(    7) = (  -0.1250000   0.3750000  -0.1250000), wk =   0.0937500
        k(    8) = (  -0.2500000   0.5000000  -0.2500000), wk =   0.0937500
        k(    9) = (   0.6250000  -0.3750000   0.6250000), wk =   0.0937500
        k(   10) = (   0.5000000  -0.2500000   0.5000000), wk =   0.0937500
        k(   11) = (   0.3750000  -0.1250000   0.3750000), wk =   0.0937500
        k(   12) = (   0.2500000   0.0000000   0.2500000), wk =   0.0468750
        k(   13) = (   0.0000000   0.5000000   0.0000000), wk =   0.0234375
        k(   14) = (  -0.1250000   0.6250000  -0.1250000), wk =   0.0937500
        k(   15) = (   0.7500000  -0.2500000   0.7500000), wk =   0.0937500
        k(   16) = (   0.6250000  -0.1250000   0.6250000), wk =   0.0937500
        k(   17) = (   0.5000000   0.0000000   0.5000000), wk =   0.0468750
        k(   18) = (   0.0000000   0.7500000   0.0000000), wk =   0.0234375
        k(   19) = (   0.8750000  -0.1250000   0.8750000), wk =   0.0937500
        k(   20) = (   0.7500000   0.0000000   0.7500000), wk =   0.0468750
        k(   21) = (   0.0000000  -1.0000000   0.0000000), wk =   0.0117188
        k(   22) = (  -0.2500000   0.5000000   0.0000000), wk =   0.0937500
        k(   23) = (   0.6250000  -0.3750000   0.8750000), wk =   0.1875000
        k(   24) = (   0.5000000  -0.2500000   0.7500000), wk =   0.0937500
        k(   25) = (   0.7500000  -0.2500000   1.0000000), wk =   0.0937500
        k(   26) = (   0.6250000  -0.1250000   0.8750000), wk =   0.1875000
        k(   27) = (   0.5000000   0.0000000   0.7500000), wk =   0.0937500
        k(   28) = (  -0.2500000  -1.0000000   0.0000000), wk =   0.0468750
        k(   29) = (  -0.5000000  -1.0000000   0.0000000), wk =   0.0234375

     Dense  grid:    30827 G-vectors     FFT dimensions: (  45,  45,  45)

     Estimated max dynamical RAM per process >      27.92 MB

     Estimated total dynamical RAM >     497.06 MB

     Initial potential from superposition of free atoms

     starting charge       9.9998, renormalised to      10.0000


     %%%%%%%%%%%%%%%%%%%%%%%%%%%%%%%%%%%%%%%%%%%%%%%%%%%%%%%%%%%%%%%%%%%%%%%%
     %                                                                      %
     % You are using vdW-DF, which was implemented by the Thonhauser group. %
     % Please cite the following two papers that made this development      %
     % possible and the two reviews that describe the various versions:     %
     %                                                                      %
     %   T. Thonhauser et al., PRL 115, 136402 (2015).                      %
     %   T. Thonhauser et al., PRB 76, 125112 (2007).                       %
     %   K. Berland et al., Rep. Prog. Phys. 78, 066501 (2015).             %
     %   D.C. Langreth et al., J. Phys.: Condens. Matter 21, 084203 (2009). %
     %                                                                      %
     % If you are calculating stress with vdW-DF, please also cite:         %
     %                                                                      %
     %   R. Sabatini et al., J. Phys.: Condens. Matter 24, 424209 (2012).   %
     %                                                                      %
     %%%%%%%%%%%%%%%%%%%%%%%%%%%%%%%%%%%%%%%%%%%%%%%%%%%%%%%%%%%%%%%%%%%%%%%%

     %%%%%%%%%%%%%%%%%%%%%%%%%%%%%%%%%%%%%%%%%%%%%%%%%%%%%%%%%%%%%%%%%%%%%%%%
     %                                                                      %
     %  vdW-DF NEWS:                                                        %
     %                                                                      %
     %  * vdW-DF3 is now available. DOI: 10.1021/acs.jctc.0c00471           %
     %    use with input_dft = 'vdW-DF3-opt1' or 'vdW-DF3-opt2'             %
     %                                                                      %
     %  * Unscreened and range-separated vdW-DF hybrid functionals          %
     %    DOI: 10.1063/1.4986522 and 10.1088/1361-648X/ac2ad2               %
     %    use with input_dft = 'vdW-DF-cx0' (etc) and 'vdW-DF-ahcx'         %
     %                                                                      %
     %%%%%%%%%%%%%%%%%%%%%%%%%%%%%%%%%%%%%%%%%%%%%%%%%%%%%%%%%%%%%%%%%%%%%%%%


     Starting wfcs are    9 randomized atomic wfcs

     total cpu time spent up to now is       12.8 secs

     Self-consistent Calculation

     iteration #  1     ecut=   170.00 Ry     beta= 0.70
     CG style diagonalization
     ethr =  1.00E-02,  avg # of iterations =  3.7

     Threshold (ethr) on eigenvalues was too large:
     Diagonalizing with lowered threshold

     CG style diagonalization
     ethr =  9.86E-05,  avg # of iterations =  6.1

     total cpu time spent up to now is       14.3 secs

     total energy              =     -66.16285767 Ry
     estimated scf accuracy    <       0.03132245 Ry

     iteration #  2     ecut=   170.00 Ry     beta= 0.70
     CG style diagonalization
     ethr =  3.13E-04,  avg # of iterations =  3.1

     total cpu time spent up to now is       15.0 secs

     total energy              =     -66.16811999 Ry
     estimated scf accuracy    <       0.00103316 Ry

     iteration #  3     ecut=   170.00 Ry     beta= 0.70
     CG style diagonalization
     ethr =  1.03E-05,  avg # of iterations =  5.4

     total cpu time spent up to now is       16.0 secs

     total energy              =     -66.16905504 Ry
     estimated scf accuracy    <       0.00019079 Ry

     iteration #  4     ecut=   170.00 Ry     beta= 0.70
     CG style diagonalization
     ethr =  1.91E-06,  avg # of iterations =  4.2

     total cpu time spent up to now is       16.9 secs

     total energy              =     -66.16907565 Ry
     estimated scf accuracy    <       0.00010809 Ry

     iteration #  5     ecut=   170.00 Ry     beta= 0.70
     CG style diagonalization
     ethr =  1.08E-06,  avg # of iterations =  3.4

     total cpu time spent up to now is       17.6 secs

     total energy              =     -66.16911025 Ry
     estimated scf accuracy    <       0.00000196 Ry

     iteration #  6     ecut=   170.00 Ry     beta= 0.70
     CG style diagonalization
     ethr =  1.96E-08,  avg # of iterations =  5.0

     total cpu time spent up to now is       18.6 secs

     total energy              =     -66.16911492 Ry
     estimated scf accuracy    <       0.00000119 Ry

     iteration #  7     ecut=   170.00 Ry     beta= 0.70
     CG style diagonalization
     ethr =  1.19E-08,  avg # of iterations =  3.1

     total cpu time spent up to now is       19.3 secs

     total energy              =     -66.16911480 Ry
     estimated scf accuracy    <       0.00000037 Ry

     iteration #  8     ecut=   170.00 Ry     beta= 0.70
     CG style diagonalization
     ethr =  3.73E-09,  avg # of iterations =  3.7

     total cpu time spent up to now is       20.1 secs

     total energy              =     -66.16911494 Ry
     estimated scf accuracy    <          5.0E-09 Ry

     iteration #  9     ecut=   170.00 Ry     beta= 0.70
     CG style diagonalization
     ethr =  5.01E-11,  avg # of iterations =  5.7

     total cpu time spent up to now is       21.1 secs

     total energy              =     -66.16911496 Ry
     estimated scf accuracy    <          6.6E-09 Ry

     iteration # 10     ecut=   170.00 Ry     beta= 0.70
     CG style diagonalization
     ethr =  5.01E-11,  avg # of iterations =  3.0

     total cpu time spent up to now is       21.9 secs

     total energy              =     -66.16911496 Ry
     estimated scf accuracy    <          8.6E-09 Ry

     iteration # 11     ecut=   170.00 Ry     beta= 0.70
     CG style diagonalization
     ethr =  5.01E-11,  avg # of iterations =  3.0

     total cpu time spent up to now is       22.6 secs

     total energy              =     -66.16911496 Ry
     estimated scf accuracy    <          6.5E-09 Ry

     iteration # 12     ecut=   170.00 Ry     beta= 0.70
     CG style diagonalization
     ethr =  5.01E-11,  avg # of iterations =  3.2

     total cpu time spent up to now is       23.3 secs

     End of self-consistent calculation

          k = 0.0000 0.0000 0.0000 (  3839 PWs)   bands (ev):

     7.3068  13.4781  13.4781  13.4781  15.5359  15.5359  33.0061  37.8630
    37.8630

          k =-0.1250 0.1250-0.1250 (  3819 PWs)   bands (ev):

     7.9086  13.2517  13.6933  13.6933  15.4438  15.4438  33.8018  35.0826
    38.6882

          k =-0.2500 0.2500-0.2500 (  3825 PWs)   bands (ev):

     9.3129  13.1840  13.8369  13.8369  15.7302  15.7302  30.8081  34.4740
    40.2039

          k =-0.3750 0.3750-0.3750 (  3837 PWs)   bands (ev):

    10.0516  13.5579  13.5579  14.9056  16.6615  16.6615  26.0593  33.0617
    38.2265

          k = 0.5000-0.5000 0.5000 (  3828 PWs)   bands (ev):

    10.0808  13.4023  13.4023  16.9786  17.1715  17.1715  23.0406  32.4006
    36.9575

          k = 0.0000 0.2500 0.0000 (  3831 PWs)   bands (ev):

     8.1137  12.9854  13.9021  13.9021  14.9988  15.7470  34.1720  36.1049
    37.5120

          k =-0.1250 0.3750-0.1250 (  3837 PWs)   bands (ev):

     9.3190  12.5992  13.9629  14.2517  15.1519  16.0737  32.6974  35.2326
    37.0134

          k =-0.2500 0.5000-0.2500 (  3832 PWs)   bands (ev):

    10.4146  13.1641  13.4117  14.1021  16.8042  16.8457  27.8198  34.0665
    36.1004

          k = 0.6250-0.3750 0.6250 (  3838 PWs)   bands (ev):

    10.5405  13.0562  13.8360  14.7617  17.2063  19.2165  23.4150  33.0316
    35.8646

          k = 0.5000-0.2500 0.5000 (  3847 PWs)   bands (ev):

    10.5783  13.1712  13.8263  14.5400  16.5258  18.7287  24.7764  33.0578
    34.9766

          k = 0.3750-0.1250 0.3750 (  3843 PWs)   bands (ev):

    10.2306  12.9420  13.6459  14.1205  15.3393  17.1331  29.5038  33.9247
    36.3565

          k = 0.2500 0.0000 0.2500 (  3829 PWs)   bands (ev):

     8.8331  12.8870  13.9097  14.0503  14.9573  15.9615  33.3923  34.5535
    37.3923

          k = 0.0000 0.5000 0.0000 (  3831 PWs)   bands (ev):

    10.0052  11.9472  14.2709  15.1001  15.1001  16.2832  34.6239  34.6239
    35.2084

          k =-0.1250 0.6250-0.1250 (  3855 PWs)   bands (ev):

    10.8127  11.7021  13.9719  15.3306  16.9310  16.9609  29.8633  33.1180
    33.6241

          k = 0.7500-0.2500 0.7500 (  3855 PWs)   bands (ev):

    11.1087  12.2205  13.7896  15.0200  17.2972  20.2813  24.8035  31.4301
    33.1530

          k = 0.6250-0.1250 0.6250 (  3855 PWs)   bands (ev):

    11.4715  12.5678  13.6392  14.7681  16.5838  21.1706  24.4693  29.6958
    35.2677

          k = 0.5000 0.0000 0.5000 (  3845 PWs)   bands (ev):

    11.5813  12.6839  13.0618  14.6542  15.4871  19.0463  28.1710  30.2079
    35.6796

          k = 0.0000 0.7500 0.0000 (  3872 PWs)   bands (ev):

    10.5450  11.0614  16.3559  16.7125  16.7125  16.8626  30.2764  30.8017
    30.8017

          k = 0.8750-0.1250 0.8750 (  3859 PWs)   bands (ev):

    10.6317  11.0921  15.7278  16.4848  17.4268  20.1378  26.2903  29.0624
    30.3259

          k = 0.7500 0.0000 0.7500 (  3851 PWs)   bands (ev):

    11.0817  11.8592  14.4387  15.8600  16.9887  23.1950  23.9961  27.3022
    32.1951

          k = 0.0000-1.0000 0.0000 (  3892 PWs)   bands (ev):

    10.2863  10.7277  17.1174  17.6210  17.6210  19.2483  26.0836  29.0437
    29.0437

          k =-0.2500 0.5000 0.0000 (  3843 PWs)   bands (ev):

    10.5694  12.2129  13.4666  15.1063  15.1775  17.1825  30.9887  33.0469
    35.7258

          k = 0.6250-0.3750 0.8750 (  3851 PWs)   bands (ev):

    11.3195  12.6987  13.0000  14.8071  16.4432  19.1270  26.6292  31.7750
    33.8833

          k = 0.5000-0.2500 0.7500 (  3874 PWs)   bands (ev):

    11.3265  12.4839  13.8621  14.5433  16.9641  21.7036  22.8057  32.1191
    32.6547

          k = 0.7500-0.2500 1.0000 (  3846 PWs)   bands (ev):

    11.1607  11.5181  14.0068  16.2442  16.7021  19.3274  27.9402  29.8015
    31.5892

          k = 0.6250-0.1250 0.8750 (  3849 PWs)   bands (ev):

    11.4737  12.0459  13.6011  15.5437  17.2181  22.6272  24.4517  28.5394
    30.7777

          k = 0.5000 0.0000 0.7500 (  3843 PWs)   bands (ev):

    12.0483  12.3997  12.7987  15.2591  16.7131  21.4090  26.8167  27.1703
    32.4242

          k =-0.2500-1.0000 0.0000 (  3858 PWs)   bands (ev):

    10.8515  11.2456  15.1619  16.3103  17.6226  22.1437  25.1152  28.1728
    29.2200

          k =-0.5000-1.0000 0.0000 (  3852 PWs)   bands (ev):

    11.6622  12.7640  12.7640  15.2259  17.6243  24.5085  25.6218  25.6218
    29.2305

     the Fermi energy is    17.1062 ev

!    total energy              =     -66.16911496 Ry
     estimated scf accuracy    <          1.1E-10 Ry
     smearing contrib. (-TS)   =      -0.00514099 Ry
     internal energy E=F+TS    =     -66.16397397 Ry

     The total energy is F=E-TS. E is the sum of the following terms:
     one-electron contribution =      15.94310993 Ry
     hartree contribution      =       4.34055342 Ry
     xc contribution           =     -24.78999780 Ry
     ewald contribution        =     -61.65763951 Ry

     convergence has been achieved in  12 iterations

     Writing all to output data dir ./Ptbulk.save/
 
     init_run     :     11.92s CPU     12.28s WALL (       1 calls)
     electrons    :     10.29s CPU     10.73s WALL (       1 calls)

     Called by init_run:
     wfcinit      :      0.08s CPU      0.08s WALL (       1 calls)
     potinit      :     10.80s CPU     10.82s WALL (       1 calls)
     hinit0       :      1.00s CPU      1.34s WALL (       1 calls)

     Called by electrons:
     c_bands      :      4.61s CPU      4.63s WALL (      13 calls)
     sum_band     :      0.76s CPU      0.76s WALL (      13 calls)
     v_of_rho     :     14.71s CPU     14.97s WALL (      13 calls)
     newd         :      0.18s CPU      0.18s WALL (      13 calls)
     mix_rho      :      0.08s CPU      0.11s WALL (      13 calls)
     vdW_kernel   :      9.70s CPU      9.70s WALL (       1 calls)

     Called by c_bands:
     init_us_2    :      0.11s CPU      0.08s WALL (      54 calls)
     init_us_2:cp :      0.11s CPU      0.08s WALL (      54 calls)
     ccgdiagg     :      3.29s CPU      3.27s WALL (      26 calls)
     wfcrot       :      0.84s CPU      0.86s WALL (      24 calls)

     Called by *cgdiagg:
     h_psi        :      3.58s CPU      3.67s WALL (     790 calls)
     s_psi        :      0.19s CPU      0.14s WALL (    1556 calls)

     Called by h_psi:
     h_psi:calbec :      0.12s CPU      0.13s WALL (     790 calls)
     vloc_psi     :      3.32s CPU      3.42s WALL (     790 calls)
     add_vuspsi   :      0.13s CPU      0.09s WALL (     790 calls)
     hs_1psi      :      2.89s CPU      2.96s WALL (     766 calls)
     s_1psi       :      0.18s CPU      0.15s WALL (     766 calls)

     General routines
     calbec       :      0.22s CPU      0.21s WALL (    1582 calls)
     fft          :      1.20s CPU      1.27s WALL (     794 calls)
     ffts         :      0.01s CPU      0.02s WALL (      13 calls)
     fftw         :      3.25s CPU      3.35s WALL (    2198 calls)
 
     Parallel routines
 
     PWSCF        :     22.37s CPU     24.58s WALL

 
   This run was terminated on:  10:20:19   7Oct2022            

=------------------------------------------------------------------------------=
   JOB DONE.
=------------------------------------------------------------------------------=
