
     Program PWSCF v.7.1 starts on 10Oct2022 at  9:47: 6 

     This program is part of the open-source Quantum ESPRESSO suite
     for quantum simulation of materials; please cite
         "P. Giannozzi et al., J. Phys.:Condens. Matter 21 395502 (2009);
         "P. Giannozzi et al., J. Phys.:Condens. Matter 29 465901 (2017);
         "P. Giannozzi et al., J. Chem. Phys. 152 154105 (2020);
          URL http://www.quantum-espresso.org", 
     in publications or presentations arising from this work. More details at
     http://www.quantum-espresso.org/quote

     Parallel version (MPI), running on    24 processors

     MPI processes distributed on     3 nodes
     50448 MiB available memory on the printing compute node when the environment starts
 
     Waiting for input...
     Reading input from standard input

     Current dimensions of program PWSCF are:
     Max number of different atomic species (ntypx) = 10
     Max number of k-points (npk) =  40000
     Max angular momentum in pseudopotentials (lmaxx) =  4
     file Pt.pbe-n-rrkjus_psl.1.0.0.UPF: wavefunction(s)  6S renormalized

     **************************************************************************
     Initializing libbeef V0.1.2 with the BEEF-vdW functional.
     Citation: Wellendorff et al., PRB 85, 235149 (2012).
     **************************************************************************


     IMPORTANT: XC functional enforced from input :
     Exchange-correlation= BEEF-VDW
                           (   1   4  43  14   2   0   0)
     Any further DFT definition will be discarded
     Please, verify this is what you really want

 
     K-points division:     npool     =      24
     Subspace diagonalization in iterative solution of the eigenvalue problem:
     a serial algorithm will be used

 
     G-vector sticks info
     --------------------
     sticks:   dense  smooth     PW     G-vecs:    dense   smooth      PW
     Sum        1345    1345    385                32647    32647    5065
 
     Using Slab Decomposition
 


     bravais-lattice index     =            2
     lattice parameter (alat)  =       7.5780  a.u.
     unit-cell volume          =     108.7937 (a.u.)^3
     number of atoms/cell      =            1
     number of atomic types    =            1
     number of electrons       =        10.00
     number of Kohn-Sham states=            9
     kinetic-energy cutoff     =     170.0000  Ry
     charge density cutoff     =     680.0000  Ry
     scf convergence threshold =      1.0E-09
     mixing beta               =       0.7000
     number of iterations used =            8  plain     mixing
     Exchange-correlation= BEEF-VDW
                           (   1   4  43  14   2   0   0)

     celldm(1)=   7.578000  celldm(2)=   0.000000  celldm(3)=   0.000000
     celldm(4)=   0.000000  celldm(5)=   0.000000  celldm(6)=   0.000000

     crystal axes: (cart. coord. in units of alat)
               a(1) = (  -0.500000   0.000000   0.500000 )  
               a(2) = (   0.000000   0.500000   0.500000 )  
               a(3) = (  -0.500000   0.500000   0.000000 )  

     reciprocal axes: (cart. coord. in units 2 pi/alat)
               b(1) = ( -1.000000 -1.000000  1.000000 )  
               b(2) = (  1.000000  1.000000  1.000000 )  
               b(3) = ( -1.000000  1.000000 -1.000000 )  


     PseudoPot. # 1 for Pt read from file:
     ./pseudo/Pt.pbe-n-rrkjus_psl.1.0.0.UPF
     MD5 check sum: 6bc887cfe28d63a5fc1f72d35a7d3ef7
     Pseudo is Ultrasoft + core correction, Zval = 10.0
     Generated using &quot;atomic&quot; code by A. Dal Corso  v.6.3
     Using radial grid of 1277 points,  6 beta functions with: 
                l(1) =   0
                l(2) =   0
                l(3) =   1
                l(4) =   1
                l(5) =   2
                l(6) =   2
     Q(r) pseudized with 0 coefficients 


     atomic species   valence    mass     pseudopotential
        Pt            10.00   195.07800     Pt( 1.00)

     48 Sym. Ops., with inversion, found



   Cartesian axes

     site n.     atom                  positions (alat units)
         1           Pt  tau(   1) = (   0.0000000   0.0000000   0.0000000  )

     number of k points=    29  Gaussian smearing, width (Ry)=  0.0200
                       cart. coord. in units 2pi/alat
        k(    1) = (   0.0000000   0.0000000   0.0000000), wk =   0.0039062
        k(    2) = (  -0.1250000   0.1250000  -0.1250000), wk =   0.0312500
        k(    3) = (  -0.2500000   0.2500000  -0.2500000), wk =   0.0312500
        k(    4) = (  -0.3750000   0.3750000  -0.3750000), wk =   0.0312500
        k(    5) = (   0.5000000  -0.5000000   0.5000000), wk =   0.0156250
        k(    6) = (   0.0000000   0.2500000   0.0000000), wk =   0.0234375
        k(    7) = (  -0.1250000   0.3750000  -0.1250000), wk =   0.0937500
        k(    8) = (  -0.2500000   0.5000000  -0.2500000), wk =   0.0937500
        k(    9) = (   0.6250000  -0.3750000   0.6250000), wk =   0.0937500
        k(   10) = (   0.5000000  -0.2500000   0.5000000), wk =   0.0937500
        k(   11) = (   0.3750000  -0.1250000   0.3750000), wk =   0.0937500
        k(   12) = (   0.2500000   0.0000000   0.2500000), wk =   0.0468750
        k(   13) = (   0.0000000   0.5000000   0.0000000), wk =   0.0234375
        k(   14) = (  -0.1250000   0.6250000  -0.1250000), wk =   0.0937500
        k(   15) = (   0.7500000  -0.2500000   0.7500000), wk =   0.0937500
        k(   16) = (   0.6250000  -0.1250000   0.6250000), wk =   0.0937500
        k(   17) = (   0.5000000   0.0000000   0.5000000), wk =   0.0468750
        k(   18) = (   0.0000000   0.7500000   0.0000000), wk =   0.0234375
        k(   19) = (   0.8750000  -0.1250000   0.8750000), wk =   0.0937500
        k(   20) = (   0.7500000   0.0000000   0.7500000), wk =   0.0468750
        k(   21) = (   0.0000000  -1.0000000   0.0000000), wk =   0.0117188
        k(   22) = (  -0.2500000   0.5000000   0.0000000), wk =   0.0937500
        k(   23) = (   0.6250000  -0.3750000   0.8750000), wk =   0.1875000
        k(   24) = (   0.5000000  -0.2500000   0.7500000), wk =   0.0937500
        k(   25) = (   0.7500000  -0.2500000   1.0000000), wk =   0.0937500
        k(   26) = (   0.6250000  -0.1250000   0.8750000), wk =   0.1875000
        k(   27) = (   0.5000000   0.0000000   0.7500000), wk =   0.0937500
        k(   28) = (  -0.2500000  -1.0000000   0.0000000), wk =   0.0468750
        k(   29) = (  -0.5000000  -1.0000000   0.0000000), wk =   0.0234375

     Dense  grid:    32647 G-vectors     FFT dimensions: (  45,  45,  45)

     Estimated max dynamical RAM per process >      29.08 MB

     Estimated total dynamical RAM >     514.54 MB

     Initial potential from superposition of free atoms

     starting charge       9.9998, renormalised to      10.0000


     %%%%%%%%%%%%%%%%%%%%%%%%%%%%%%%%%%%%%%%%%%%%%%%%%%%%%%%%%%%%%%%%%%%%%%%%
     %                                                                      %
     % You are using vdW-DF, which was implemented by the Thonhauser group. %
     % Please cite the following two papers that made this development      %
     % possible and the two reviews that describe the various versions:     %
     %                                                                      %
     %   T. Thonhauser et al., PRL 115, 136402 (2015).                      %
     %   T. Thonhauser et al., PRB 76, 125112 (2007).                       %
     %   K. Berland et al., Rep. Prog. Phys. 78, 066501 (2015).             %
     %   D.C. Langreth et al., J. Phys.: Condens. Matter 21, 084203 (2009). %
     %                                                                      %
     % If you are calculating stress with vdW-DF, please also cite:         %
     %                                                                      %
     %   R. Sabatini et al., J. Phys.: Condens. Matter 24, 424209 (2012).   %
     %                                                                      %
     %%%%%%%%%%%%%%%%%%%%%%%%%%%%%%%%%%%%%%%%%%%%%%%%%%%%%%%%%%%%%%%%%%%%%%%%

     %%%%%%%%%%%%%%%%%%%%%%%%%%%%%%%%%%%%%%%%%%%%%%%%%%%%%%%%%%%%%%%%%%%%%%%%
     %                                                                      %
     %  vdW-DF NEWS:                                                        %
     %                                                                      %
     %  * vdW-DF3 is now available. DOI: 10.1021/acs.jctc.0c00471           %
     %    use with input_dft = 'vdW-DF3-opt1' or 'vdW-DF3-opt2'             %
     %                                                                      %
     %  * Unscreened and range-separated vdW-DF hybrid functionals          %
     %    DOI: 10.1063/1.4986522 and 10.1088/1361-648X/ac2ad2               %
     %    use with input_dft = 'vdW-DF-cx0' (etc) and 'vdW-DF-ahcx'         %
     %                                                                      %
     %%%%%%%%%%%%%%%%%%%%%%%%%%%%%%%%%%%%%%%%%%%%%%%%%%%%%%%%%%%%%%%%%%%%%%%%


     Starting wfcs are    9 randomized atomic wfcs

     total cpu time spent up to now is       14.8 secs

     Self-consistent Calculation

     iteration #  1     ecut=   170.00 Ry     beta= 0.70
     CG style diagonalization
     ethr =  1.00E-02,  avg # of iterations =  3.6

     Threshold (ethr) on eigenvalues was too large:
     Diagonalizing with lowered threshold

     CG style diagonalization
     c_bands:  1 eigenvalues not converged
     ethr =  1.16E-04,  avg # of iterations =  5.9

     total cpu time spent up to now is       16.7 secs

     total energy              =     -66.16461445 Ry
     estimated scf accuracy    <       0.03182779 Ry

     iteration #  2     ecut=   170.00 Ry     beta= 0.70
     CG style diagonalization
     ethr =  3.18E-04,  avg # of iterations =  3.2

     total cpu time spent up to now is       17.5 secs

     total energy              =     -66.17056982 Ry
     estimated scf accuracy    <       0.00166188 Ry

     iteration #  3     ecut=   170.00 Ry     beta= 0.70
     CG style diagonalization
     ethr =  1.66E-05,  avg # of iterations =  4.7

     total cpu time spent up to now is       18.7 secs

     total energy              =     -66.17160001 Ry
     estimated scf accuracy    <       0.00013275 Ry

     iteration #  4     ecut=   170.00 Ry     beta= 0.70
     CG style diagonalization
     ethr =  1.33E-06,  avg # of iterations =  4.9

     total cpu time spent up to now is       19.8 secs

     total energy              =     -66.17167152 Ry
     estimated scf accuracy    <       0.00001235 Ry

     iteration #  5     ecut=   170.00 Ry     beta= 0.70
     CG style diagonalization
     ethr =  1.23E-07,  avg # of iterations =  4.9

     total cpu time spent up to now is       20.9 secs

     total energy              =     -66.17168887 Ry
     estimated scf accuracy    <       0.00000857 Ry

     iteration #  6     ecut=   170.00 Ry     beta= 0.70
     CG style diagonalization
     ethr =  8.57E-08,  avg # of iterations =  3.1

     total cpu time spent up to now is       21.8 secs

     total energy              =     -66.17168937 Ry
     estimated scf accuracy    <       0.00000109 Ry

     iteration #  7     ecut=   170.00 Ry     beta= 0.70
     CG style diagonalization
     ethr =  1.09E-08,  avg # of iterations =  3.9

     total cpu time spent up to now is       22.8 secs

     total energy              =     -66.17168985 Ry
     estimated scf accuracy    <          8.1E-09 Ry

     iteration #  8     ecut=   170.00 Ry     beta= 0.70
     CG style diagonalization
     ethr =  8.13E-11,  avg # of iterations =  6.2

     total cpu time spent up to now is       24.0 secs

     total energy              =     -66.17168993 Ry
     estimated scf accuracy    <       0.00000002 Ry

     iteration #  9     ecut=   170.00 Ry     beta= 0.70
     CG style diagonalization
     ethr =  8.13E-11,  avg # of iterations =  3.5

     total cpu time spent up to now is       24.9 secs

     End of self-consistent calculation

          k = 0.0000 0.0000 0.0000 (  4015 PWs)   bands (ev):

     6.5488  12.4355  12.4355  12.4355  14.3037  14.3037  31.6760  36.1889
    36.1890

          k =-0.1250 0.1250-0.1250 (  4059 PWs)   bands (ev):

     7.1194  12.2324  12.6330  12.6330  14.2234  14.2234  32.3528  33.4559
    36.9165

          k =-0.2500 0.2500-0.2500 (  4062 PWs)   bands (ev):

     8.4712  12.1725  12.7657  12.7657  14.4886  14.4886  29.0251  32.9575
    38.0861

          k =-0.3750 0.3750-0.3750 (  4083 PWs)   bands (ev):

     9.2290  12.5124  12.5124  13.7922  15.3314  15.3314  24.2589  31.6702
    36.2232

          k = 0.5000-0.5000 0.5000 (  4092 PWs)   bands (ev):

     9.2752  12.3705  12.3705  15.7891  15.7891  15.8310  21.2465  31.0676
    35.0718

          k = 0.0000 0.2500 0.0000 (  4063 PWs)   bands (ev):

     7.3136  11.9903  12.8240  12.8240  13.8235  14.4961  32.7189  34.4782
    35.6828

          k =-0.1250 0.3750-0.1250 (  4052 PWs)   bands (ev):

     8.4663  11.6389  12.8848  13.1442  13.9668  14.7955  30.9071  33.6316
    35.0224

          k =-0.2500 0.5000-0.2500 (  4062 PWs)   bands (ev):

     9.5560  12.1572  12.3807  13.0093  15.4887  15.4954  26.0103  32.5405
    34.1160

          k = 0.6250-0.3750 0.6250 (  4063 PWs)   bands (ev):

     9.7048  12.0616  12.7677  13.6418  15.8204  17.8029  21.6632  31.5406
    33.9509

          k = 0.5000-0.2500 0.5000 (  4066 PWs)   bands (ev):

     9.7336  12.1651  12.7594  13.4396  15.2105  17.2801  23.0096  31.4541
    33.1944

          k = 0.3750-0.1250 0.3750 (  4066 PWs)   bands (ev):

     9.3561  11.9488  12.5991  13.0271  14.1371  15.7657  27.6849  32.1384
    34.5692

          k = 0.2500 0.0000 0.2500 (  4067 PWs)   bands (ev):

     7.9994  11.9018  12.8331  12.9605  13.7869  14.6952  31.6973  32.8605
    35.6312

          k = 0.0000 0.5000 0.0000 (  4064 PWs)   bands (ev):

     9.1355  11.0434  13.1674  13.9193  13.9193  14.9834  32.6998  32.6998
    33.5302

          k =-0.1250 0.6250-0.1250 (  4069 PWs)   bands (ev):

     9.9474  10.8153  12.8911  14.1292  15.5710  15.6355  28.0365  31.2587
    31.7253

          k = 0.7500-0.2500 0.7500 (  4077 PWs)   bands (ev):

    10.2535  11.2969  12.7253  13.8485  15.9022  18.7564  23.1331  29.5324
    31.3028

          k = 0.6250-0.1250 0.6250 (  4069 PWs)   bands (ev):

    10.5842  11.6175  12.5947  13.6207  15.2633  19.6142  22.7415  27.8380
    33.2885

          k = 0.5000 0.0000 0.5000 (  4069 PWs)   bands (ev):

    10.6497  11.7144  12.0731  13.5173  14.2712  17.5408  26.3894  28.2835
    34.0479

          k = 0.0000 0.7500 0.0000 (  4076 PWs)   bands (ev):

     9.7312  10.2283  15.1377  15.3823  15.3823  15.5074  28.2521  29.0743
    29.0743

          k = 0.8750-0.1250 0.8750 (  4075 PWs)   bands (ev):

     9.8274  10.2541  14.5161  15.1734  16.0197  18.6652  24.5233  27.2512
    28.6315

          k = 0.7500 0.0000 0.7500 (  4089 PWs)   bands (ev):

    10.2458  10.9593  13.3289  14.6120  15.6281  21.5776  22.3550  25.4548
    30.3734

          k = 0.0000-1.0000 0.0000 (  4088 PWs)   bands (ev):

     9.5096   9.9199  15.7369  16.1952  16.1952  17.9764  24.1139  27.4428
    27.4428

          k =-0.2500 0.5000 0.0000 (  4059 PWs)   bands (ev):

     9.6705  11.2852  12.4358  13.9251  13.9923  15.8102  29.1698  31.0849
    33.9463

          k = 0.6250-0.3750 0.8750 (  4074 PWs)   bands (ev):

    10.4259  11.7388  11.9986  13.6561  15.1402  17.6335  24.8667  29.8822
    32.1062

          k = 0.5000-0.2500 0.7500 (  4072 PWs)   bands (ev):

    10.4423  11.5437  12.8027  13.4155  15.6057  20.1888  21.0799  30.1843
    30.8933

          k = 0.7500-0.2500 1.0000 (  4069 PWs)   bands (ev):

    10.3062  10.6455  12.9250  14.9638  15.3726  17.8384  26.1645  28.0198
    29.7023

          k = 0.6250-0.1250 0.8750 (  4080 PWs)   bands (ev):

    10.6076  11.1305  12.5551  14.3284  15.8352  20.9767  22.8170  26.6971
    28.9524

          k = 0.5000 0.0000 0.7500 (  4078 PWs)   bands (ev):

    11.1403  11.4448  11.8190  14.0702  15.3815  19.8223  25.0339  25.3977
    30.5392

          k =-0.2500-1.0000 0.0000 (  4078 PWs)   bands (ev):

    10.0355  10.3937  13.9942  15.0188  16.1966  20.6236  23.2872  26.5180
    27.4443

          k =-0.5000-1.0000 0.0000 (  4128 PWs)   bands (ev):

    10.7895  11.7870  11.7870  14.0412  16.1981  22.7255  23.9618  23.9618
    27.3921

     the Fermi energy is    15.7429 ev

!    total energy              =     -66.17168993 Ry
     estimated scf accuracy    <          2.5E-11 Ry
     smearing contrib. (-TS)   =      -0.00562648 Ry
     internal energy E=F+TS    =     -66.16606345 Ry

     The total energy is F=E-TS. E is the sum of the following terms:
     one-electron contribution =      14.37734805 Ry
     hartree contribution      =       4.69528760 Ry
     xc contribution           =     -24.73642839 Ry
     ewald contribution        =     -60.50227071 Ry

     convergence has been achieved in   9 iterations

     Writing all to output data dir ./Ptbulk.save/
 
     init_run     :     14.30s CPU     14.38s WALL (       1 calls)
     electrons    :      9.84s CPU     10.24s WALL (       1 calls)

     Called by init_run:
     wfcinit      :      0.10s CPU      0.10s WALL (       1 calls)
     potinit      :     12.98s CPU     13.07s WALL (       1 calls)
     hinit0       :      1.17s CPU      1.17s WALL (       1 calls)

     Called by electrons:
     c_bands      :      4.84s CPU      4.85s WALL (      10 calls)
     sum_band     :      0.73s CPU      0.73s WALL (      10 calls)
     v_of_rho     :     15.82s CPU     16.10s WALL (      10 calls)
     newd         :      0.10s CPU      0.09s WALL (      10 calls)
     mix_rho      :      0.07s CPU      0.08s WALL (      10 calls)
     vdW_kernel   :     11.31s CPU     11.33s WALL (       1 calls)

     Called by c_bands:
     init_us_2    :      0.10s CPU      0.07s WALL (      42 calls)
     init_us_2:cp :      0.09s CPU      0.07s WALL (      42 calls)
     ccgdiagg     :      3.46s CPU      3.47s WALL (      20 calls)
     wfcrot       :      0.76s CPU      0.80s WALL (      18 calls)

     Called by *cgdiagg:
     h_psi        :      3.79s CPU      3.77s WALL (     669 calls)
     s_psi        :      0.13s CPU      0.15s WALL (    1320 calls)

     Called by h_psi:
     h_psi:calbec :      0.11s CPU      0.14s WALL (     669 calls)
     vloc_psi     :      3.58s CPU      3.51s WALL (     669 calls)
     add_vuspsi   :      0.06s CPU      0.09s WALL (     669 calls)
     hs_1psi      :      3.15s CPU      3.13s WALL (     651 calls)
     s_1psi       :      0.15s CPU      0.16s WALL (     651 calls)

     General routines
     calbec       :      0.22s CPU      0.23s WALL (    1340 calls)
     fft          :      1.12s CPU      1.16s WALL (     611 calls)
     ffts         :      0.02s CPU      0.02s WALL (      10 calls)
     fftw         :      3.42s CPU      3.32s WALL (    1806 calls)
 
     Parallel routines
 
     PWSCF        :     24.34s CPU     26.74s WALL

 
   This run was terminated on:   9:47:33  10Oct2022            

=------------------------------------------------------------------------------=
   JOB DONE.
=------------------------------------------------------------------------------=
