
     Program PWSCF v.7.1 starts on  7Oct2022 at 10:19:54 

     This program is part of the open-source Quantum ESPRESSO suite
     for quantum simulation of materials; please cite
         "P. Giannozzi et al., J. Phys.:Condens. Matter 21 395502 (2009);
         "P. Giannozzi et al., J. Phys.:Condens. Matter 29 465901 (2017);
         "P. Giannozzi et al., J. Chem. Phys. 152 154105 (2020);
          URL http://www.quantum-espresso.org", 
     in publications or presentations arising from this work. More details at
     http://www.quantum-espresso.org/quote

     Parallel version (MPI), running on    24 processors

     MPI processes distributed on     3 nodes
     50489 MiB available memory on the printing compute node when the environment starts
 
     Waiting for input...
     Reading input from standard input

     Current dimensions of program PWSCF are:
     Max number of different atomic species (ntypx) = 10
     Max number of k-points (npk) =  40000
     Max angular momentum in pseudopotentials (lmaxx) =  4
     file Pt.pbe-n-rrkjus_psl.1.0.0.UPF: wavefunction(s)  6S renormalized

     **************************************************************************
     Initializing libbeef V0.1.2 with the BEEF-vdW functional.
     Citation: Wellendorff et al., PRB 85, 235149 (2012).
     **************************************************************************


     IMPORTANT: XC functional enforced from input :
     Exchange-correlation= BEEF-VDW
                           (   1   4  43  14   2   0   0)
     Any further DFT definition will be discarded
     Please, verify this is what you really want

 
     K-points division:     npool     =      24
     Subspace diagonalization in iterative solution of the eigenvalue problem:
     a serial algorithm will be used

 
     G-vector sticks info
     --------------------
     sticks:   dense  smooth     PW     G-vecs:    dense   smooth      PW
     Sum        1285    1285    379                30587    30587    4909
 
     Using Slab Decomposition
 


     bravais-lattice index     =            2
     lattice parameter (alat)  =       7.4160  a.u.
     unit-cell volume          =     101.9645 (a.u.)^3
     number of atoms/cell      =            1
     number of atomic types    =            1
     number of electrons       =        10.00
     number of Kohn-Sham states=            9
     kinetic-energy cutoff     =     170.0000  Ry
     charge density cutoff     =     680.0000  Ry
     scf convergence threshold =      1.0E-09
     mixing beta               =       0.7000
     number of iterations used =            8  plain     mixing
     Exchange-correlation= BEEF-VDW
                           (   1   4  43  14   2   0   0)

     celldm(1)=   7.416000  celldm(2)=   0.000000  celldm(3)=   0.000000
     celldm(4)=   0.000000  celldm(5)=   0.000000  celldm(6)=   0.000000

     crystal axes: (cart. coord. in units of alat)
               a(1) = (  -0.500000   0.000000   0.500000 )  
               a(2) = (   0.000000   0.500000   0.500000 )  
               a(3) = (  -0.500000   0.500000   0.000000 )  

     reciprocal axes: (cart. coord. in units 2 pi/alat)
               b(1) = ( -1.000000 -1.000000  1.000000 )  
               b(2) = (  1.000000  1.000000  1.000000 )  
               b(3) = ( -1.000000  1.000000 -1.000000 )  


     PseudoPot. # 1 for Pt read from file:
     ./pseudo/Pt.pbe-n-rrkjus_psl.1.0.0.UPF
     MD5 check sum: 6bc887cfe28d63a5fc1f72d35a7d3ef7
     Pseudo is Ultrasoft + core correction, Zval = 10.0
     Generated using &quot;atomic&quot; code by A. Dal Corso  v.6.3
     Using radial grid of 1277 points,  6 beta functions with: 
                l(1) =   0
                l(2) =   0
                l(3) =   1
                l(4) =   1
                l(5) =   2
                l(6) =   2
     Q(r) pseudized with 0 coefficients 


     atomic species   valence    mass     pseudopotential
        Pt            10.00   195.07800     Pt( 1.00)

     48 Sym. Ops., with inversion, found



   Cartesian axes

     site n.     atom                  positions (alat units)
         1           Pt  tau(   1) = (   0.0000000   0.0000000   0.0000000  )

     number of k points=    29  Gaussian smearing, width (Ry)=  0.0200
                       cart. coord. in units 2pi/alat
        k(    1) = (   0.0000000   0.0000000   0.0000000), wk =   0.0039062
        k(    2) = (  -0.1250000   0.1250000  -0.1250000), wk =   0.0312500
        k(    3) = (  -0.2500000   0.2500000  -0.2500000), wk =   0.0312500
        k(    4) = (  -0.3750000   0.3750000  -0.3750000), wk =   0.0312500
        k(    5) = (   0.5000000  -0.5000000   0.5000000), wk =   0.0156250
        k(    6) = (   0.0000000   0.2500000   0.0000000), wk =   0.0234375
        k(    7) = (  -0.1250000   0.3750000  -0.1250000), wk =   0.0937500
        k(    8) = (  -0.2500000   0.5000000  -0.2500000), wk =   0.0937500
        k(    9) = (   0.6250000  -0.3750000   0.6250000), wk =   0.0937500
        k(   10) = (   0.5000000  -0.2500000   0.5000000), wk =   0.0937500
        k(   11) = (   0.3750000  -0.1250000   0.3750000), wk =   0.0937500
        k(   12) = (   0.2500000   0.0000000   0.2500000), wk =   0.0468750
        k(   13) = (   0.0000000   0.5000000   0.0000000), wk =   0.0234375
        k(   14) = (  -0.1250000   0.6250000  -0.1250000), wk =   0.0937500
        k(   15) = (   0.7500000  -0.2500000   0.7500000), wk =   0.0937500
        k(   16) = (   0.6250000  -0.1250000   0.6250000), wk =   0.0937500
        k(   17) = (   0.5000000   0.0000000   0.5000000), wk =   0.0468750
        k(   18) = (   0.0000000   0.7500000   0.0000000), wk =   0.0234375
        k(   19) = (   0.8750000  -0.1250000   0.8750000), wk =   0.0937500
        k(   20) = (   0.7500000   0.0000000   0.7500000), wk =   0.0468750
        k(   21) = (   0.0000000  -1.0000000   0.0000000), wk =   0.0117188
        k(   22) = (  -0.2500000   0.5000000   0.0000000), wk =   0.0937500
        k(   23) = (   0.6250000  -0.3750000   0.8750000), wk =   0.1875000
        k(   24) = (   0.5000000  -0.2500000   0.7500000), wk =   0.0937500
        k(   25) = (   0.7500000  -0.2500000   1.0000000), wk =   0.0937500
        k(   26) = (   0.6250000  -0.1250000   0.8750000), wk =   0.1875000
        k(   27) = (   0.5000000   0.0000000   0.7500000), wk =   0.0937500
        k(   28) = (  -0.2500000  -1.0000000   0.0000000), wk =   0.0468750
        k(   29) = (  -0.5000000  -1.0000000   0.0000000), wk =   0.0234375

     Dense  grid:    30587 G-vectors     FFT dimensions: (  45,  45,  45)

     Estimated max dynamical RAM per process >      27.77 MB

     Estimated total dynamical RAM >     494.73 MB

     Initial potential from superposition of free atoms

     starting charge       9.9998, renormalised to      10.0000


     %%%%%%%%%%%%%%%%%%%%%%%%%%%%%%%%%%%%%%%%%%%%%%%%%%%%%%%%%%%%%%%%%%%%%%%%
     %                                                                      %
     % You are using vdW-DF, which was implemented by the Thonhauser group. %
     % Please cite the following two papers that made this development      %
     % possible and the two reviews that describe the various versions:     %
     %                                                                      %
     %   T. Thonhauser et al., PRL 115, 136402 (2015).                      %
     %   T. Thonhauser et al., PRB 76, 125112 (2007).                       %
     %   K. Berland et al., Rep. Prog. Phys. 78, 066501 (2015).             %
     %   D.C. Langreth et al., J. Phys.: Condens. Matter 21, 084203 (2009). %
     %                                                                      %
     % If you are calculating stress with vdW-DF, please also cite:         %
     %                                                                      %
     %   R. Sabatini et al., J. Phys.: Condens. Matter 24, 424209 (2012).   %
     %                                                                      %
     %%%%%%%%%%%%%%%%%%%%%%%%%%%%%%%%%%%%%%%%%%%%%%%%%%%%%%%%%%%%%%%%%%%%%%%%

     %%%%%%%%%%%%%%%%%%%%%%%%%%%%%%%%%%%%%%%%%%%%%%%%%%%%%%%%%%%%%%%%%%%%%%%%
     %                                                                      %
     %  vdW-DF NEWS:                                                        %
     %                                                                      %
     %  * vdW-DF3 is now available. DOI: 10.1021/acs.jctc.0c00471           %
     %    use with input_dft = 'vdW-DF3-opt1' or 'vdW-DF3-opt2'             %
     %                                                                      %
     %  * Unscreened and range-separated vdW-DF hybrid functionals          %
     %    DOI: 10.1063/1.4986522 and 10.1088/1361-648X/ac2ad2               %
     %    use with input_dft = 'vdW-DF-cx0' (etc) and 'vdW-DF-ahcx'         %
     %                                                                      %
     %%%%%%%%%%%%%%%%%%%%%%%%%%%%%%%%%%%%%%%%%%%%%%%%%%%%%%%%%%%%%%%%%%%%%%%%


     Starting wfcs are    9 randomized atomic wfcs

     total cpu time spent up to now is       15.1 secs

     Self-consistent Calculation

     iteration #  1     ecut=   170.00 Ry     beta= 0.70
     CG style diagonalization
     ethr =  1.00E-02,  avg # of iterations =  3.8

     Threshold (ethr) on eigenvalues was too large:
     Diagonalizing with lowered threshold

     CG style diagonalization
     ethr =  1.00E-04,  avg # of iterations =  6.0

     total cpu time spent up to now is       17.0 secs

     total energy              =     -66.16218442 Ry
     estimated scf accuracy    <       0.03100202 Ry

     iteration #  2     ecut=   170.00 Ry     beta= 0.70
     CG style diagonalization
     ethr =  3.10E-04,  avg # of iterations =  3.1

     total cpu time spent up to now is       17.8 secs

     total energy              =     -66.16724796 Ry
     estimated scf accuracy    <       0.00089873 Ry

     iteration #  3     ecut=   170.00 Ry     beta= 0.70
     CG style diagonalization
     c_bands:  1 eigenvalues not converged
     ethr =  8.99E-06,  avg # of iterations =  5.7

     total cpu time spent up to now is       19.0 secs

     total energy              =     -66.16821670 Ry
     estimated scf accuracy    <       0.00022046 Ry

     iteration #  4     ecut=   170.00 Ry     beta= 0.70
     CG style diagonalization
     ethr =  2.20E-06,  avg # of iterations =  4.3

     total cpu time spent up to now is       20.0 secs

     total energy              =     -66.16821243 Ry
     estimated scf accuracy    <       0.00019875 Ry

     iteration #  5     ecut=   170.00 Ry     beta= 0.70
     CG style diagonalization
     ethr =  1.99E-06,  avg # of iterations =  3.3

     total cpu time spent up to now is       20.9 secs

     total energy              =     -66.16826379 Ry
     estimated scf accuracy    <       0.00000090 Ry

     iteration #  6     ecut=   170.00 Ry     beta= 0.70
     CG style diagonalization
     ethr =  9.05E-09,  avg # of iterations =  5.8

     total cpu time spent up to now is       22.0 secs

     total energy              =     -66.16827009 Ry
     estimated scf accuracy    <       0.00000116 Ry

     iteration #  7     ecut=   170.00 Ry     beta= 0.70
     CG style diagonalization
     ethr =  9.05E-09,  avg # of iterations =  3.0

     total cpu time spent up to now is       22.8 secs

     total energy              =     -66.16826906 Ry
     estimated scf accuracy    <       0.00000214 Ry

     iteration #  8     ecut=   170.00 Ry     beta= 0.70
     CG style diagonalization
     ethr =  9.05E-09,  avg # of iterations =  3.1

     total cpu time spent up to now is       23.7 secs

     total energy              =     -66.16826922 Ry
     estimated scf accuracy    <       0.00000019 Ry

     iteration #  9     ecut=   170.00 Ry     beta= 0.70
     CG style diagonalization
     ethr =  1.93E-09,  avg # of iterations =  3.4

     total cpu time spent up to now is       24.6 secs

     total energy              =     -66.16826926 Ry
     estimated scf accuracy    <       0.00000004 Ry

     iteration # 10     ecut=   170.00 Ry     beta= 0.70
     CG style diagonalization
     ethr =  3.80E-10,  avg # of iterations =  4.0

     total cpu time spent up to now is       25.6 secs

     total energy              =     -66.16826928 Ry
     estimated scf accuracy    <       0.00000002 Ry

     iteration # 11     ecut=   170.00 Ry     beta= 0.70
     CG style diagonalization
     ethr =  2.45E-10,  avg # of iterations =  3.1

     total cpu time spent up to now is       26.4 secs

     total energy              =     -66.16826928 Ry
     estimated scf accuracy    <       0.00000002 Ry

     iteration # 12     ecut=   170.00 Ry     beta= 0.70
     CG style diagonalization
     ethr =  1.80E-10,  avg # of iterations =  3.0

     total cpu time spent up to now is       27.3 secs

     total energy              =     -66.16826928 Ry
     estimated scf accuracy    <       0.00000002 Ry

     iteration # 13     ecut=   170.00 Ry     beta= 0.70
     CG style diagonalization
     ethr =  1.80E-10,  avg # of iterations =  4.0

     total cpu time spent up to now is       28.3 secs

     total energy              =     -66.16826930 Ry
     estimated scf accuracy    <       0.00000005 Ry

     iteration # 14     ecut=   170.00 Ry     beta= 0.70
     CG style diagonalization
     ethr =  1.80E-10,  avg # of iterations =  3.3

     total cpu time spent up to now is       29.2 secs

     total energy              =     -66.16826929 Ry
     estimated scf accuracy    <       0.00000006 Ry

     iteration # 15     ecut=   170.00 Ry     beta= 0.70
     CG style diagonalization
     ethr =  1.80E-10,  avg # of iterations =  3.0

     total cpu time spent up to now is       30.0 secs

     total energy              =     -66.16826929 Ry
     estimated scf accuracy    <       0.00000004 Ry

     iteration # 16     ecut=   170.00 Ry     beta= 0.70
     CG style diagonalization
     ethr =  1.80E-10,  avg # of iterations =  3.0

     total cpu time spent up to now is       30.9 secs

     total energy              =     -66.16826929 Ry
     estimated scf accuracy    <       0.00000002 Ry

     iteration # 17     ecut=   170.00 Ry     beta= 0.70
     CG style diagonalization
     ethr =  1.80E-10,  avg # of iterations =  3.0

     total cpu time spent up to now is       31.7 secs

     total energy              =     -66.16826928 Ry
     estimated scf accuracy    <       0.00000002 Ry

     iteration # 18     ecut=   170.00 Ry     beta= 0.70
     CG style diagonalization
     ethr =  1.79E-10,  avg # of iterations =  3.0

     total cpu time spent up to now is       32.5 secs

     total energy              =     -66.16826928 Ry
     estimated scf accuracy    <          1.0E-08 Ry

     iteration # 19     ecut=   170.00 Ry     beta= 0.70
     CG style diagonalization
     ethr =  1.00E-10,  avg # of iterations =  3.0

     total cpu time spent up to now is       33.4 secs

     total energy              =     -66.16826928 Ry
     estimated scf accuracy    <          4.4E-09 Ry

     iteration # 20     ecut=   170.00 Ry     beta= 0.70
     CG style diagonalization
     ethr =  4.39E-11,  avg # of iterations =  3.3

     total cpu time spent up to now is       34.3 secs

     End of self-consistent calculation

          k = 0.0000 0.0000 0.0000 (  3839 PWs)   bands (ev):

     7.4191  13.6313  13.6313  13.6313  15.7175  15.7175  33.1999  38.1061
    38.1061

          k =-0.1250 0.1250-0.1250 (  3780 PWs)   bands (ev):

     8.0255  13.4014  13.8491  13.8491  15.6236  15.6236  34.0117  35.3196
    38.9452

          k =-0.2500 0.2500-0.2500 (  3807 PWs)   bands (ev):

     9.4373  13.3328  13.9944  13.9944  15.9131  15.9131  31.0671  34.6976
    40.5123

          k =-0.3750 0.3750-0.3750 (  3819 PWs)   bands (ev):

    10.1726  13.7115  13.7115  15.0701  16.8578  16.8578  26.3246  33.2653
    38.5189

          k = 0.5000-0.5000 0.5000 (  3828 PWs)   bands (ev):

    10.1991  13.5538  13.5538  17.1487  17.3757  17.3757  23.3058  32.5949
    37.2325

          k = 0.0000 0.2500 0.0000 (  3803 PWs)   bands (ev):

     8.2322  13.1315  14.0606  14.0606  15.1718  15.9315  34.3838  36.3415
    37.7773

          k =-0.1250 0.3750-0.1250 (  3807 PWs)   bands (ev):

     9.4452  12.7401  14.1213  14.4146  15.3264  16.2622  32.9573  35.4672
    37.3044

          k =-0.2500 0.5000-0.2500 (  3817 PWs)   bands (ev):

    10.5411  13.3123  13.5631  14.2628  16.9983  17.0450  28.0859  34.2898
    36.3910

          k = 0.6250-0.3750 0.6250 (  3810 PWs)   bands (ev):

    10.6633  13.2021  13.9929  14.9268  17.4110  19.4257  23.6739  33.2479
    36.1443

          k = 0.5000-0.2500 0.5000 (  3812 PWs)   bands (ev):

    10.7025  13.3188  13.9830  14.7024  16.7199  18.9430  25.0374  33.2880
    35.2416

          k = 0.3750-0.1250 0.3750 (  3809 PWs)   bands (ev):

    10.3598  13.0881  13.7997  14.2812  15.5163  17.3351  29.7702  34.1837
    36.6219

          k = 0.2500 0.0000 0.2500 (  3789 PWs)   bands (ev):

     8.9566  13.0316  14.0680  14.2105  15.1295  16.1482  33.6379  34.7981
    37.6514

          k = 0.0000 0.5000 0.0000 (  3831 PWs)   bands (ev):

    10.1338  12.0796  14.4333  15.2739  15.2739  16.4750  34.9060  34.9060
    35.4539

          k =-0.1250 0.6250-0.1250 (  3824 PWs)   bands (ev):

    10.9400  11.8321  14.1310  15.5075  17.1319  17.1565  30.1315  33.3910
    33.9011

          k = 0.7500-0.2500 0.7500 (  3830 PWs)   bands (ev):

    11.2341  12.3562  13.9464  15.1924  17.5033  20.5065  25.0498  31.7085
    33.4246

          k = 0.6250-0.1250 0.6250 (  3824 PWs)   bands (ev):

    11.6017  12.7074  13.7931  14.9369  16.7786  21.4001  24.7248  29.9693
    35.5583

          k = 0.5000 0.0000 0.5000 (  3803 PWs)   bands (ev):

    11.7187  12.8264  13.2071  14.8214  15.6662  19.2689  28.4328  30.4921
    35.9177

          k = 0.0000 0.7500 0.0000 (  3824 PWs)   bands (ev):

    10.6643  11.1833  16.5359  16.9088  16.9088  17.0627  30.5746  31.0554
    31.0554

          k = 0.8750-0.1250 0.8750 (  3836 PWs)   bands (ev):

    10.7494  11.2149  15.9065  16.6782  17.6348  20.3558  26.5489  29.3309
    30.5747

          k = 0.7500 0.0000 0.7500 (  3811 PWs)   bands (ev):

    11.2040  11.9914  14.6023  16.0439  17.1896  23.4322  24.2393  27.5755
    32.4629

          k = 0.0000-1.0000 0.0000 (  3812 PWs)   bands (ev):

    10.3999  10.8459  17.3213  17.8317  17.8317  19.4367  26.3744  29.2786
    29.2786

          k =-0.2500 0.5000 0.0000 (  3818 PWs)   bands (ev):

    10.7023  12.3490  13.6179  15.2801  15.3520  17.3852  31.2547  33.3356
    35.9861

          k = 0.6250-0.3750 0.8750 (  3822 PWs)   bands (ev):

    11.4510  12.8396  13.1473  14.9764  16.6354  19.3478  26.8888  32.0531
    34.1422

          k = 0.5000-0.2500 0.7500 (  3806 PWs)   bands (ev):

    11.4565  12.6218  14.0183  14.7092  17.1646  21.9279  23.0602  32.4036
    32.9120

          k = 0.7500-0.2500 1.0000 (  3835 PWs)   bands (ev):

    11.2861  11.6460  14.1662  16.4330  16.8983  19.5476  28.2009  30.0637
    31.8671

          k = 0.6250-0.1250 0.8750 (  3818 PWs)   bands (ev):

    11.6006  12.1804  13.7551  15.7227  17.4223  22.8708  24.6927  28.8112
    31.0464

          k = 0.5000 0.0000 0.7500 (  3823 PWs)   bands (ev):

    12.1813  12.5404  12.9428  15.4341  16.9096  21.6431  27.0793  27.4323
    32.7012

          k =-0.2500-1.0000 0.0000 (  3826 PWs)   bands (ev):

    10.9710  11.3705  15.3340  16.5008  17.8334  22.3690  25.3838  28.4159
    29.4824

          k =-0.5000-1.0000 0.0000 (  3828 PWs)   bands (ev):

    11.7901  12.9077  12.9077  15.4002  17.8351  24.7709  25.8669  25.8669
    29.5019

     the Fermi energy is    17.3077 ev

!    total energy              =     -66.16826928 Ry
     estimated scf accuracy    <          4.3E-10 Ry
     smearing contrib. (-TS)   =      -0.00506458 Ry
     internal energy E=F+TS    =     -66.16320470 Ry

     The total energy is F=E-TS. E is the sum of the following terms:
     one-electron contribution =      16.16739205 Ry
     hartree contribution      =       4.29162464 Ry
     xc contribution           =     -24.79829914 Ry
     ewald contribution        =     -61.82392225 Ry

     convergence has been achieved in  20 iterations

     Writing all to output data dir ./Ptbulk.save/
 
     init_run     :     14.73s CPU     14.81s WALL (       1 calls)
     electrons    :     18.54s CPU     19.19s WALL (       1 calls)

     Called by init_run:
     wfcinit      :      0.09s CPU      0.09s WALL (       1 calls)
     potinit      :     13.43s CPU     13.50s WALL (       1 calls)
     hinit0       :      1.17s CPU      1.18s WALL (       1 calls)

     Called by electrons:
     c_bands      :      7.77s CPU      7.82s WALL (      21 calls)
     sum_band     :      1.47s CPU      1.46s WALL (      21 calls)
     v_of_rho     :     20.39s CPU     21.00s WALL (      21 calls)
     newd         :      0.32s CPU      0.33s WALL (      21 calls)
     mix_rho      :      0.26s CPU      0.25s WALL (      21 calls)
     vdW_kernel   :     11.32s CPU     11.33s WALL (       1 calls)

     Called by c_bands:
     init_us_2    :      0.08s CPU      0.14s WALL (      86 calls)
     init_us_2:cp :      0.08s CPU      0.14s WALL (      86 calls)
     ccgdiagg     :      5.43s CPU      5.40s WALL (      42 calls)
     wfcrot       :      1.63s CPU      1.69s WALL (      40 calls)

     Called by *cgdiagg:
     h_psi        :      6.47s CPU      6.31s WALL (    1111 calls)
     s_psi        :      0.18s CPU      0.24s WALL (    2182 calls)

     Called by h_psi:
     h_psi:calbec :      0.24s CPU      0.21s WALL (    1111 calls)
     vloc_psi     :      5.96s CPU      5.89s WALL (    1111 calls)
     add_vuspsi   :      0.18s CPU      0.15s WALL (    1111 calls)
     hs_1psi      :      5.02s CPU      4.89s WALL (    1071 calls)
     s_1psi       :      0.19s CPU      0.25s WALL (    1071 calls)

     General routines
     calbec       :      0.34s CPU      0.35s WALL (    2224 calls)
     fft          :      2.42s CPU      2.44s WALL (    1282 calls)
     ffts         :      0.02s CPU      0.04s WALL (      21 calls)
     fftw         :      5.91s CPU      5.80s WALL (    3240 calls)
 
     Parallel routines
 
     PWSCF        :     33.47s CPU     35.22s WALL

 
   This run was terminated on:  10:20:29   7Oct2022            

=------------------------------------------------------------------------------=
   JOB DONE.
=------------------------------------------------------------------------------=
