
     Program PWSCF v.7.1 starts on 10Oct2022 at  9:47: 6 

     This program is part of the open-source Quantum ESPRESSO suite
     for quantum simulation of materials; please cite
         "P. Giannozzi et al., J. Phys.:Condens. Matter 21 395502 (2009);
         "P. Giannozzi et al., J. Phys.:Condens. Matter 29 465901 (2017);
         "P. Giannozzi et al., J. Chem. Phys. 152 154105 (2020);
          URL http://www.quantum-espresso.org", 
     in publications or presentations arising from this work. More details at
     http://www.quantum-espresso.org/quote

     Parallel version (MPI), running on    24 processors

     MPI processes distributed on     3 nodes
     94651 MiB available memory on the printing compute node when the environment starts
 
     Waiting for input...
     Reading input from standard input

     Current dimensions of program PWSCF are:
     Max number of different atomic species (ntypx) = 10
     Max number of k-points (npk) =  40000
     Max angular momentum in pseudopotentials (lmaxx) =  4
     file Pt.pbe-n-rrkjus_psl.1.0.0.UPF: wavefunction(s)  6S renormalized

     **************************************************************************
     Initializing libbeef V0.1.2 with the BEEF-vdW functional.
     Citation: Wellendorff et al., PRB 85, 235149 (2012).
     **************************************************************************


     IMPORTANT: XC functional enforced from input :
     Exchange-correlation= BEEF-VDW
                           (   1   4  43  14   2   0   0)
     Any further DFT definition will be discarded
     Please, verify this is what you really want

 
     K-points division:     npool     =      24
     Subspace diagonalization in iterative solution of the eigenvalue problem:
     a serial algorithm will be used

 
     G-vector sticks info
     --------------------
     sticks:   dense  smooth     PW     G-vecs:    dense   smooth      PW
     Sum        1345    1345    385                32647    32647    5065
 
     Using Slab Decomposition
 


     bravais-lattice index     =            2
     lattice parameter (alat)  =       7.5730  a.u.
     unit-cell volume          =     108.5785 (a.u.)^3
     number of atoms/cell      =            1
     number of atomic types    =            1
     number of electrons       =        10.00
     number of Kohn-Sham states=            9
     kinetic-energy cutoff     =     170.0000  Ry
     charge density cutoff     =     680.0000  Ry
     scf convergence threshold =      1.0E-09
     mixing beta               =       0.7000
     number of iterations used =            8  plain     mixing
     Exchange-correlation= BEEF-VDW
                           (   1   4  43  14   2   0   0)

     celldm(1)=   7.573000  celldm(2)=   0.000000  celldm(3)=   0.000000
     celldm(4)=   0.000000  celldm(5)=   0.000000  celldm(6)=   0.000000

     crystal axes: (cart. coord. in units of alat)
               a(1) = (  -0.500000   0.000000   0.500000 )  
               a(2) = (   0.000000   0.500000   0.500000 )  
               a(3) = (  -0.500000   0.500000   0.000000 )  

     reciprocal axes: (cart. coord. in units 2 pi/alat)
               b(1) = ( -1.000000 -1.000000  1.000000 )  
               b(2) = (  1.000000  1.000000  1.000000 )  
               b(3) = ( -1.000000  1.000000 -1.000000 )  


     PseudoPot. # 1 for Pt read from file:
     ./pseudo/Pt.pbe-n-rrkjus_psl.1.0.0.UPF
     MD5 check sum: 6bc887cfe28d63a5fc1f72d35a7d3ef7
     Pseudo is Ultrasoft + core correction, Zval = 10.0
     Generated using &quot;atomic&quot; code by A. Dal Corso  v.6.3
     Using radial grid of 1277 points,  6 beta functions with: 
                l(1) =   0
                l(2) =   0
                l(3) =   1
                l(4) =   1
                l(5) =   2
                l(6) =   2
     Q(r) pseudized with 0 coefficients 


     atomic species   valence    mass     pseudopotential
        Pt            10.00   195.07800     Pt( 1.00)

     48 Sym. Ops., with inversion, found



   Cartesian axes

     site n.     atom                  positions (alat units)
         1           Pt  tau(   1) = (   0.0000000   0.0000000   0.0000000  )

     number of k points=    29  Gaussian smearing, width (Ry)=  0.0200
                       cart. coord. in units 2pi/alat
        k(    1) = (   0.0000000   0.0000000   0.0000000), wk =   0.0039062
        k(    2) = (  -0.1250000   0.1250000  -0.1250000), wk =   0.0312500
        k(    3) = (  -0.2500000   0.2500000  -0.2500000), wk =   0.0312500
        k(    4) = (  -0.3750000   0.3750000  -0.3750000), wk =   0.0312500
        k(    5) = (   0.5000000  -0.5000000   0.5000000), wk =   0.0156250
        k(    6) = (   0.0000000   0.2500000   0.0000000), wk =   0.0234375
        k(    7) = (  -0.1250000   0.3750000  -0.1250000), wk =   0.0937500
        k(    8) = (  -0.2500000   0.5000000  -0.2500000), wk =   0.0937500
        k(    9) = (   0.6250000  -0.3750000   0.6250000), wk =   0.0937500
        k(   10) = (   0.5000000  -0.2500000   0.5000000), wk =   0.0937500
        k(   11) = (   0.3750000  -0.1250000   0.3750000), wk =   0.0937500
        k(   12) = (   0.2500000   0.0000000   0.2500000), wk =   0.0468750
        k(   13) = (   0.0000000   0.5000000   0.0000000), wk =   0.0234375
        k(   14) = (  -0.1250000   0.6250000  -0.1250000), wk =   0.0937500
        k(   15) = (   0.7500000  -0.2500000   0.7500000), wk =   0.0937500
        k(   16) = (   0.6250000  -0.1250000   0.6250000), wk =   0.0937500
        k(   17) = (   0.5000000   0.0000000   0.5000000), wk =   0.0468750
        k(   18) = (   0.0000000   0.7500000   0.0000000), wk =   0.0234375
        k(   19) = (   0.8750000  -0.1250000   0.8750000), wk =   0.0937500
        k(   20) = (   0.7500000   0.0000000   0.7500000), wk =   0.0468750
        k(   21) = (   0.0000000  -1.0000000   0.0000000), wk =   0.0117188
        k(   22) = (  -0.2500000   0.5000000   0.0000000), wk =   0.0937500
        k(   23) = (   0.6250000  -0.3750000   0.8750000), wk =   0.1875000
        k(   24) = (   0.5000000  -0.2500000   0.7500000), wk =   0.0937500
        k(   25) = (   0.7500000  -0.2500000   1.0000000), wk =   0.0937500
        k(   26) = (   0.6250000  -0.1250000   0.8750000), wk =   0.1875000
        k(   27) = (   0.5000000   0.0000000   0.7500000), wk =   0.0937500
        k(   28) = (  -0.2500000  -1.0000000   0.0000000), wk =   0.0468750
        k(   29) = (  -0.5000000  -1.0000000   0.0000000), wk =   0.0234375

     Dense  grid:    32647 G-vectors     FFT dimensions: (  45,  45,  45)

     Estimated max dynamical RAM per process >      29.07 MB

     Estimated total dynamical RAM >     514.41 MB

     Initial potential from superposition of free atoms

     starting charge       9.9998, renormalised to      10.0000


     %%%%%%%%%%%%%%%%%%%%%%%%%%%%%%%%%%%%%%%%%%%%%%%%%%%%%%%%%%%%%%%%%%%%%%%%
     %                                                                      %
     % You are using vdW-DF, which was implemented by the Thonhauser group. %
     % Please cite the following two papers that made this development      %
     % possible and the two reviews that describe the various versions:     %
     %                                                                      %
     %   T. Thonhauser et al., PRL 115, 136402 (2015).                      %
     %   T. Thonhauser et al., PRB 76, 125112 (2007).                       %
     %   K. Berland et al., Rep. Prog. Phys. 78, 066501 (2015).             %
     %   D.C. Langreth et al., J. Phys.: Condens. Matter 21, 084203 (2009). %
     %                                                                      %
     % If you are calculating stress with vdW-DF, please also cite:         %
     %                                                                      %
     %   R. Sabatini et al., J. Phys.: Condens. Matter 24, 424209 (2012).   %
     %                                                                      %
     %%%%%%%%%%%%%%%%%%%%%%%%%%%%%%%%%%%%%%%%%%%%%%%%%%%%%%%%%%%%%%%%%%%%%%%%

     %%%%%%%%%%%%%%%%%%%%%%%%%%%%%%%%%%%%%%%%%%%%%%%%%%%%%%%%%%%%%%%%%%%%%%%%
     %                                                                      %
     %  vdW-DF NEWS:                                                        %
     %                                                                      %
     %  * vdW-DF3 is now available. DOI: 10.1021/acs.jctc.0c00471           %
     %    use with input_dft = 'vdW-DF3-opt1' or 'vdW-DF3-opt2'             %
     %                                                                      %
     %  * Unscreened and range-separated vdW-DF hybrid functionals          %
     %    DOI: 10.1063/1.4986522 and 10.1088/1361-648X/ac2ad2               %
     %    use with input_dft = 'vdW-DF-cx0' (etc) and 'vdW-DF-ahcx'         %
     %                                                                      %
     %%%%%%%%%%%%%%%%%%%%%%%%%%%%%%%%%%%%%%%%%%%%%%%%%%%%%%%%%%%%%%%%%%%%%%%%


     Starting wfcs are    9 randomized atomic wfcs

     total cpu time spent up to now is       15.5 secs

     Self-consistent Calculation

     iteration #  1     ecut=   170.00 Ry     beta= 0.70
     CG style diagonalization
     ethr =  1.00E-02,  avg # of iterations =  3.6

     Threshold (ethr) on eigenvalues was too large:
     Diagonalizing with lowered threshold

     CG style diagonalization
     c_bands:  1 eigenvalues not converged
     ethr =  1.12E-04,  avg # of iterations =  5.9

     total cpu time spent up to now is       17.4 secs

     total energy              =     -66.16450780 Ry
     estimated scf accuracy    <       0.03225903 Ry

     iteration #  2     ecut=   170.00 Ry     beta= 0.70
     CG style diagonalization
     ethr =  3.23E-04,  avg # of iterations =  3.2

     total cpu time spent up to now is       18.3 secs

     total energy              =     -66.17058597 Ry
     estimated scf accuracy    <       0.00177478 Ry

     iteration #  3     ecut=   170.00 Ry     beta= 0.70
     CG style diagonalization
     ethr =  1.77E-05,  avg # of iterations =  4.7

     total cpu time spent up to now is       19.5 secs

     total energy              =     -66.17159882 Ry
     estimated scf accuracy    <       0.00013509 Ry

     iteration #  4     ecut=   170.00 Ry     beta= 0.70
     CG style diagonalization
     ethr =  1.35E-06,  avg # of iterations =  5.0

     total cpu time spent up to now is       20.6 secs

     total energy              =     -66.17167282 Ry
     estimated scf accuracy    <       0.00001475 Ry

     iteration #  5     ecut=   170.00 Ry     beta= 0.70
     CG style diagonalization
     ethr =  1.47E-07,  avg # of iterations =  4.7

     total cpu time spent up to now is       21.7 secs

     total energy              =     -66.17169049 Ry
     estimated scf accuracy    <       0.00000860 Ry

     iteration #  6     ecut=   170.00 Ry     beta= 0.70
     CG style diagonalization
     ethr =  8.60E-08,  avg # of iterations =  3.2

     total cpu time spent up to now is       22.6 secs

     total energy              =     -66.17169133 Ry
     estimated scf accuracy    <       0.00000086 Ry

     iteration #  7     ecut=   170.00 Ry     beta= 0.70
     CG style diagonalization
     ethr =  8.62E-09,  avg # of iterations =  4.0

     total cpu time spent up to now is       23.7 secs

     total energy              =     -66.17169186 Ry
     estimated scf accuracy    <       0.00000001 Ry

     iteration #  8     ecut=   170.00 Ry     beta= 0.70
     CG style diagonalization
     ethr =  1.21E-10,  avg # of iterations =  5.6

     total cpu time spent up to now is       24.9 secs

     total energy              =     -66.17169192 Ry
     estimated scf accuracy    <          2.5E-09 Ry

     iteration #  9     ecut=   170.00 Ry     beta= 0.70
     CG style diagonalization
     ethr =  2.46E-11,  avg # of iterations =  3.8

     total cpu time spent up to now is       25.9 secs

     End of self-consistent calculation

          k = 0.0000 0.0000 0.0000 (  4015 PWs)   bands (ev):

     6.5744  12.4710  12.4710  12.4710  14.3456  14.3456  31.7216  36.2464
    36.2464

          k =-0.1250 0.1250-0.1250 (  4047 PWs)   bands (ev):

     7.1460  12.2671  12.6691  12.6691  14.2649  14.2649  32.4026  33.5114
    36.9774

          k =-0.2500 0.2500-0.2500 (  4050 PWs)   bands (ev):

     8.4997  12.2069  12.8022  12.8022  14.5308  14.5308  29.0863  33.0089
    38.1585

          k =-0.3750 0.3750-0.3750 (  4077 PWs)   bands (ev):

     9.2569  12.5481  12.5481  13.8299  15.3766  15.3766  24.3200  31.7177
    36.2917

          k = 0.5000-0.5000 0.5000 (  4092 PWs)   bands (ev):

     9.3026  12.4057  12.4057  15.8360  15.8360  15.8697  21.3073  31.1132
    35.1364

          k = 0.0000 0.2500 0.0000 (  4047 PWs)   bands (ev):

     7.3407  12.0242  12.8608  12.8608  13.8635  14.5387  32.7684  34.5339
    35.7456

          k =-0.1250 0.3750-0.1250 (  4048 PWs)   bands (ev):

     8.4951  11.6716  12.9215  13.1819  14.0072  14.8389  30.9685  33.6862
    35.0904

          k =-0.2500 0.5000-0.2500 (  4062 PWs)   bands (ev):

     9.5851  12.1914  12.4158  13.0465  15.5334  15.5413  26.0718  32.5926
    34.1834

          k = 0.6250-0.3750 0.6250 (  4059 PWs)   bands (ev):

     9.7332  12.0956  12.8041  13.6798  15.8674  17.8507  21.7225  31.5917
    34.0162

          k = 0.5000-0.2500 0.5000 (  4051 PWs)   bands (ev):

     9.7623  12.1995  12.7958  13.4770  15.2552  17.3292  23.0694  31.5097
    33.2542

          k = 0.3750-0.1250 0.3750 (  4056 PWs)   bands (ev):

     9.3858  11.9826  12.6348  13.0643  14.1780  15.8121  27.7469  32.1998
    34.6294

          k = 0.2500 0.0000 0.2500 (  4043 PWs)   bands (ev):

     8.0275  11.9354  12.8698  12.9976  13.8268  14.7382  31.7555  32.9188
    35.6909

          k = 0.0000 0.5000 0.0000 (  4064 PWs)   bands (ev):

     9.1650  11.0743  13.2049  13.9595  13.9595  15.0276  32.7653  32.7653
    33.5873

          k =-0.1250 0.6250-0.1250 (  4067 PWs)   bands (ev):

     9.9768  10.8456  12.9279  14.1701  15.6172  15.6805  28.0987  31.3219
    31.7903

          k = 0.7500-0.2500 0.7500 (  4069 PWs)   bands (ev):

    10.2827  11.3284  12.7615  13.8883  15.9495  18.8080  23.1897  29.5970
    31.3658

          k = 0.6250-0.1250 0.6250 (  4064 PWs)   bands (ev):

    10.6144  11.6499  12.6302  13.6598  15.3082  19.6670  22.7999  27.9010
    33.3558

          k = 0.5000 0.0000 0.5000 (  4069 PWs)   bands (ev):

    10.6813  11.7474  12.1068  13.5560  14.3126  17.5918  26.4499  28.3486
    34.1036

          k = 0.0000 0.7500 0.0000 (  4064 PWs)   bands (ev):

     9.7590  10.2568  15.1789  15.4275  15.4275  15.5534  28.3208  29.1330
    29.1330

          k = 0.8750-0.1250 0.8750 (  4070 PWs)   bands (ev):

     9.8549  10.2827  14.5573  15.2179  16.0674  18.7150  24.5835  27.3124
    28.6891

          k = 0.7500 0.0000 0.7500 (  4065 PWs)   bands (ev):

    10.2744  10.9899  13.3666  14.6545  15.6743  21.6326  22.4104  25.5173
    30.4352

          k = 0.0000-1.0000 0.0000 (  4088 PWs)   bands (ev):

     9.5362   9.9475  15.7837  16.2436  16.2436  18.0193  24.1806  27.4972
    27.4972

          k =-0.2500 0.5000 0.0000 (  4059 PWs)   bands (ev):

     9.7009  11.3169  12.4710  13.9653  14.0326  15.8567  29.2318  31.1516
    34.0070

          k = 0.6250-0.3750 0.8750 (  4068 PWs)   bands (ev):

    10.4563  11.7715  12.0327  13.6953  15.1845  17.6841  24.9265  29.9465
    32.1669

          k = 0.5000-0.2500 0.7500 (  4072 PWs)   bands (ev):

    10.4724  11.5758  12.8387  13.4539  15.6518  20.2400  21.1385  30.2501
    30.9535

          k = 0.7500-0.2500 1.0000 (  4069 PWs)   bands (ev):

    10.3353  10.6753  12.9618  15.0073  15.4177  17.8888  26.2249  28.0803
    29.7663

          k = 0.6250-0.1250 0.8750 (  4073 PWs)   bands (ev):

    10.6372  11.1617  12.5907  14.3698  15.8821  21.0327  22.8724  26.7595
    29.0143

          k = 0.5000 0.0000 0.7500 (  4078 PWs)   bands (ev):

    11.1714  11.4772  11.8524  14.1107  15.4267  19.8761  25.0943  25.4577
    30.6033

          k =-0.2500-1.0000 0.0000 (  4062 PWs)   bands (ev):

    10.0634  10.4228  14.0339  15.0627  16.2450  20.6750  23.3494  26.5742
    27.5044

          k =-0.5000-1.0000 0.0000 (  4056 PWs)   bands (ev):

    10.8193  11.8203  11.8203  14.0815  16.2464  22.7861  24.0180  24.0180
    27.4544

     the Fermi energy is    15.7892 ev

!    total energy              =     -66.17169192 Ry
     estimated scf accuracy    <          1.3E-10 Ry
     smearing contrib. (-TS)   =      -0.00561120 Ry
     internal energy E=F+TS    =     -66.16608072 Ry

     The total energy is F=E-TS. E is the sum of the following terms:
     one-electron contribution =      14.43169118 Ry
     hartree contribution      =       4.68262683 Ry
     xc contribution           =     -24.73818199 Ry
     ewald contribution        =     -60.54221675 Ry

     convergence has been achieved in   9 iterations

     Writing all to output data dir ./Ptbulk.save/
 
     init_run     :     15.00s CPU     15.05s WALL (       1 calls)
     electrons    :     10.14s CPU     10.57s WALL (       1 calls)

     Called by init_run:
     wfcinit      :      0.10s CPU      0.10s WALL (       1 calls)
     potinit      :     13.48s CPU     13.52s WALL (       1 calls)
     hinit0       :      1.36s CPU      1.37s WALL (       1 calls)

     Called by electrons:
     c_bands      :      4.96s CPU      4.97s WALL (      10 calls)
     sum_band     :      0.76s CPU      0.76s WALL (      10 calls)
     v_of_rho     :     16.53s CPU     16.76s WALL (      10 calls)
     newd         :      0.21s CPU      0.21s WALL (      10 calls)
     mix_rho      :      0.07s CPU      0.08s WALL (      10 calls)
     vdW_kernel   :     11.96s CPU     11.96s WALL (       1 calls)

     Called by c_bands:
     init_us_2    :      0.08s CPU      0.08s WALL (      42 calls)
     init_us_2:cp :      0.08s CPU      0.08s WALL (      42 calls)
     ccgdiagg     :      3.57s CPU      3.58s WALL (      20 calls)
     wfcrot       :      0.80s CPU      0.80s WALL (      18 calls)

     Called by *cgdiagg:
     h_psi        :      3.88s CPU      3.89s WALL (     669 calls)
     s_psi        :      0.16s CPU      0.16s WALL (    1320 calls)

     Called by h_psi:
     h_psi:calbec :      0.16s CPU      0.16s WALL (     669 calls)
     vloc_psi     :      3.61s CPU      3.62s WALL (     669 calls)
     add_vuspsi   :      0.09s CPU      0.09s WALL (     669 calls)
     hs_1psi      :      3.22s CPU      3.24s WALL (     651 calls)
     s_1psi       :      0.17s CPU      0.16s WALL (     651 calls)

     General routines
     calbec       :      0.26s CPU      0.26s WALL (    1340 calls)
     fft          :      1.25s CPU      1.24s WALL (     611 calls)
     ffts         :      0.02s CPU      0.02s WALL (      10 calls)
     fftw         :      3.48s CPU      3.49s WALL (    1806 calls)
 
     Parallel routines
 
     PWSCF        :     25.37s CPU     27.62s WALL

 
   This run was terminated on:   9:47:34  10Oct2022            

=------------------------------------------------------------------------------=
   JOB DONE.
=------------------------------------------------------------------------------=
