
     Program PWSCF v.7.1 starts on 10Oct2022 at  9:47: 6 

     This program is part of the open-source Quantum ESPRESSO suite
     for quantum simulation of materials; please cite
         "P. Giannozzi et al., J. Phys.:Condens. Matter 21 395502 (2009);
         "P. Giannozzi et al., J. Phys.:Condens. Matter 29 465901 (2017);
         "P. Giannozzi et al., J. Chem. Phys. 152 154105 (2020);
          URL http://www.quantum-espresso.org", 
     in publications or presentations arising from this work. More details at
     http://www.quantum-espresso.org/quote

     Parallel version (MPI), running on    24 processors

     MPI processes distributed on     3 nodes
     93549 MiB available memory on the printing compute node when the environment starts
 
     Waiting for input...
     Reading input from standard input

     Current dimensions of program PWSCF are:
     Max number of different atomic species (ntypx) = 10
     Max number of k-points (npk) =  40000
     Max angular momentum in pseudopotentials (lmaxx) =  4
     file Pt.pbe-n-rrkjus_psl.1.0.0.UPF: wavefunction(s)  6S renormalized

     **************************************************************************
     Initializing libbeef V0.1.2 with the BEEF-vdW functional.
     Citation: Wellendorff et al., PRB 85, 235149 (2012).
     **************************************************************************


     IMPORTANT: XC functional enforced from input :
     Exchange-correlation= BEEF-VDW
                           (   1   4  43  14   2   0   0)
     Any further DFT definition will be discarded
     Please, verify this is what you really want

 
     K-points division:     npool     =      24
     Subspace diagonalization in iterative solution of the eigenvalue problem:
     a serial algorithm will be used

 
     G-vector sticks info
     --------------------
     sticks:   dense  smooth     PW     G-vecs:    dense   smooth      PW
     Sum        1345    1345    385                32647    32647    5065
 
     Using Slab Decomposition
 


     bravais-lattice index     =            2
     lattice parameter (alat)  =       7.5790  a.u.
     unit-cell volume          =     108.8368 (a.u.)^3
     number of atoms/cell      =            1
     number of atomic types    =            1
     number of electrons       =        10.00
     number of Kohn-Sham states=            9
     kinetic-energy cutoff     =     170.0000  Ry
     charge density cutoff     =     680.0000  Ry
     scf convergence threshold =      1.0E-09
     mixing beta               =       0.7000
     number of iterations used =            8  plain     mixing
     Exchange-correlation= BEEF-VDW
                           (   1   4  43  14   2   0   0)

     celldm(1)=   7.579000  celldm(2)=   0.000000  celldm(3)=   0.000000
     celldm(4)=   0.000000  celldm(5)=   0.000000  celldm(6)=   0.000000

     crystal axes: (cart. coord. in units of alat)
               a(1) = (  -0.500000   0.000000   0.500000 )  
               a(2) = (   0.000000   0.500000   0.500000 )  
               a(3) = (  -0.500000   0.500000   0.000000 )  

     reciprocal axes: (cart. coord. in units 2 pi/alat)
               b(1) = ( -1.000000 -1.000000  1.000000 )  
               b(2) = (  1.000000  1.000000  1.000000 )  
               b(3) = ( -1.000000  1.000000 -1.000000 )  


     PseudoPot. # 1 for Pt read from file:
     ./pseudo/Pt.pbe-n-rrkjus_psl.1.0.0.UPF
     MD5 check sum: 6bc887cfe28d63a5fc1f72d35a7d3ef7
     Pseudo is Ultrasoft + core correction, Zval = 10.0
     Generated using &quot;atomic&quot; code by A. Dal Corso  v.6.3
     Using radial grid of 1277 points,  6 beta functions with: 
                l(1) =   0
                l(2) =   0
                l(3) =   1
                l(4) =   1
                l(5) =   2
                l(6) =   2
     Q(r) pseudized with 0 coefficients 


     atomic species   valence    mass     pseudopotential
        Pt            10.00   195.07800     Pt( 1.00)

     48 Sym. Ops., with inversion, found



   Cartesian axes

     site n.     atom                  positions (alat units)
         1           Pt  tau(   1) = (   0.0000000   0.0000000   0.0000000  )

     number of k points=    29  Gaussian smearing, width (Ry)=  0.0200
                       cart. coord. in units 2pi/alat
        k(    1) = (   0.0000000   0.0000000   0.0000000), wk =   0.0039062
        k(    2) = (  -0.1250000   0.1250000  -0.1250000), wk =   0.0312500
        k(    3) = (  -0.2500000   0.2500000  -0.2500000), wk =   0.0312500
        k(    4) = (  -0.3750000   0.3750000  -0.3750000), wk =   0.0312500
        k(    5) = (   0.5000000  -0.5000000   0.5000000), wk =   0.0156250
        k(    6) = (   0.0000000   0.2500000   0.0000000), wk =   0.0234375
        k(    7) = (  -0.1250000   0.3750000  -0.1250000), wk =   0.0937500
        k(    8) = (  -0.2500000   0.5000000  -0.2500000), wk =   0.0937500
        k(    9) = (   0.6250000  -0.3750000   0.6250000), wk =   0.0937500
        k(   10) = (   0.5000000  -0.2500000   0.5000000), wk =   0.0937500
        k(   11) = (   0.3750000  -0.1250000   0.3750000), wk =   0.0937500
        k(   12) = (   0.2500000   0.0000000   0.2500000), wk =   0.0468750
        k(   13) = (   0.0000000   0.5000000   0.0000000), wk =   0.0234375
        k(   14) = (  -0.1250000   0.6250000  -0.1250000), wk =   0.0937500
        k(   15) = (   0.7500000  -0.2500000   0.7500000), wk =   0.0937500
        k(   16) = (   0.6250000  -0.1250000   0.6250000), wk =   0.0937500
        k(   17) = (   0.5000000   0.0000000   0.5000000), wk =   0.0468750
        k(   18) = (   0.0000000   0.7500000   0.0000000), wk =   0.0234375
        k(   19) = (   0.8750000  -0.1250000   0.8750000), wk =   0.0937500
        k(   20) = (   0.7500000   0.0000000   0.7500000), wk =   0.0468750
        k(   21) = (   0.0000000  -1.0000000   0.0000000), wk =   0.0117188
        k(   22) = (  -0.2500000   0.5000000   0.0000000), wk =   0.0937500
        k(   23) = (   0.6250000  -0.3750000   0.8750000), wk =   0.1875000
        k(   24) = (   0.5000000  -0.2500000   0.7500000), wk =   0.0937500
        k(   25) = (   0.7500000  -0.2500000   1.0000000), wk =   0.0937500
        k(   26) = (   0.6250000  -0.1250000   0.8750000), wk =   0.1875000
        k(   27) = (   0.5000000   0.0000000   0.7500000), wk =   0.0937500
        k(   28) = (  -0.2500000  -1.0000000   0.0000000), wk =   0.0468750
        k(   29) = (  -0.5000000  -1.0000000   0.0000000), wk =   0.0234375

     Dense  grid:    32647 G-vectors     FFT dimensions: (  45,  45,  45)

     Estimated max dynamical RAM per process >      29.08 MB

     Estimated total dynamical RAM >     514.57 MB

     Initial potential from superposition of free atoms

     starting charge       9.9998, renormalised to      10.0000


     %%%%%%%%%%%%%%%%%%%%%%%%%%%%%%%%%%%%%%%%%%%%%%%%%%%%%%%%%%%%%%%%%%%%%%%%
     %                                                                      %
     % You are using vdW-DF, which was implemented by the Thonhauser group. %
     % Please cite the following two papers that made this development      %
     % possible and the two reviews that describe the various versions:     %
     %                                                                      %
     %   T. Thonhauser et al., PRL 115, 136402 (2015).                      %
     %   T. Thonhauser et al., PRB 76, 125112 (2007).                       %
     %   K. Berland et al., Rep. Prog. Phys. 78, 066501 (2015).             %
     %   D.C. Langreth et al., J. Phys.: Condens. Matter 21, 084203 (2009). %
     %                                                                      %
     % If you are calculating stress with vdW-DF, please also cite:         %
     %                                                                      %
     %   R. Sabatini et al., J. Phys.: Condens. Matter 24, 424209 (2012).   %
     %                                                                      %
     %%%%%%%%%%%%%%%%%%%%%%%%%%%%%%%%%%%%%%%%%%%%%%%%%%%%%%%%%%%%%%%%%%%%%%%%

     %%%%%%%%%%%%%%%%%%%%%%%%%%%%%%%%%%%%%%%%%%%%%%%%%%%%%%%%%%%%%%%%%%%%%%%%
     %                                                                      %
     %  vdW-DF NEWS:                                                        %
     %                                                                      %
     %  * vdW-DF3 is now available. DOI: 10.1021/acs.jctc.0c00471           %
     %    use with input_dft = 'vdW-DF3-opt1' or 'vdW-DF3-opt2'             %
     %                                                                      %
     %  * Unscreened and range-separated vdW-DF hybrid functionals          %
     %    DOI: 10.1063/1.4986522 and 10.1088/1361-648X/ac2ad2               %
     %    use with input_dft = 'vdW-DF-cx0' (etc) and 'vdW-DF-ahcx'         %
     %                                                                      %
     %%%%%%%%%%%%%%%%%%%%%%%%%%%%%%%%%%%%%%%%%%%%%%%%%%%%%%%%%%%%%%%%%%%%%%%%


     Starting wfcs are    9 randomized atomic wfcs

     total cpu time spent up to now is       14.7 secs

     Self-consistent Calculation

     iteration #  1     ecut=   170.00 Ry     beta= 0.70
     CG style diagonalization
     ethr =  1.00E-02,  avg # of iterations =  3.6

     Threshold (ethr) on eigenvalues was too large:
     Diagonalizing with lowered threshold

     CG style diagonalization
     c_bands:  1 eigenvalues not converged
     ethr =  1.14E-04,  avg # of iterations =  5.9

     total cpu time spent up to now is       16.6 secs

     total energy              =     -66.16456803 Ry
     estimated scf accuracy    <       0.03193881 Ry

     iteration #  2     ecut=   170.00 Ry     beta= 0.70
     CG style diagonalization
     ethr =  3.19E-04,  avg # of iterations =  3.2

     total cpu time spent up to now is       17.4 secs

     total energy              =     -66.17055287 Ry
     estimated scf accuracy    <       0.00166253 Ry

     iteration #  3     ecut=   170.00 Ry     beta= 0.70
     CG style diagonalization
     ethr =  1.66E-05,  avg # of iterations =  4.8

     total cpu time spent up to now is       18.6 secs

     total energy              =     -66.17159790 Ry
     estimated scf accuracy    <       0.00013924 Ry

     iteration #  4     ecut=   170.00 Ry     beta= 0.70
     CG style diagonalization
     ethr =  1.39E-06,  avg # of iterations =  4.8

     total cpu time spent up to now is       19.6 secs

     total energy              =     -66.17166579 Ry
     estimated scf accuracy    <       0.00002200 Ry

     iteration #  5     ecut=   170.00 Ry     beta= 0.70
     CG style diagonalization
     ethr =  2.20E-07,  avg # of iterations =  4.5

     total cpu time spent up to now is       20.7 secs

     total energy              =     -66.17168695 Ry
     estimated scf accuracy    <       0.00000826 Ry

     iteration #  6     ecut=   170.00 Ry     beta= 0.70
     CG style diagonalization
     ethr =  8.26E-08,  avg # of iterations =  3.3

     total cpu time spent up to now is       21.6 secs

     total energy              =     -66.17168821 Ry
     estimated scf accuracy    <       0.00000092 Ry

     iteration #  7     ecut=   170.00 Ry     beta= 0.70
     CG style diagonalization
     ethr =  9.20E-09,  avg # of iterations =  4.0

     total cpu time spent up to now is       22.6 secs

     total energy              =     -66.17168873 Ry
     estimated scf accuracy    <          2.4E-09 Ry

     iteration #  8     ecut=   170.00 Ry     beta= 0.70
     CG style diagonalization
     ethr =  2.41E-11,  avg # of iterations =  7.0

     total cpu time spent up to now is       23.9 secs

     total energy              =     -66.17168880 Ry
     estimated scf accuracy    <          1.3E-09 Ry

     iteration #  9     ecut=   170.00 Ry     beta= 0.70
     CG style diagonalization
     ethr =  1.30E-11,  avg # of iterations =  3.1

     total cpu time spent up to now is       24.8 secs

     End of self-consistent calculation

          k = 0.0000 0.0000 0.0000 (  4015 PWs)   bands (ev):

     6.5437  12.4283  12.4283  12.4283  14.2953  14.2953  31.6670  36.1775
    36.1775

          k =-0.1250 0.1250-0.1250 (  4059 PWs)   bands (ev):

     7.1140  12.2254  12.6257  12.6257  14.2151  14.2151  32.3428  33.4448
    36.9044

          k =-0.2500 0.2500-0.2500 (  4062 PWs)   bands (ev):

     8.4655  12.1656  12.7583  12.7583  14.4801  14.4801  29.0129  32.9472
    38.0716

          k =-0.3750 0.3750-0.3750 (  4083 PWs)   bands (ev):

     9.2234  12.5052  12.5052  13.7847  15.3223  15.3223  24.2467  31.6608
    36.2096

          k = 0.5000-0.5000 0.5000 (  4092 PWs)   bands (ev):

     9.2697  12.3635  12.3635  15.7797  15.7797  15.8232  21.2344  31.0585
    35.0590

          k = 0.0000 0.2500 0.0000 (  4063 PWs)   bands (ev):

     7.3083  11.9835  12.8166  12.8166  13.8155  14.4876  32.7088  34.4670
    35.6703

          k =-0.1250 0.3750-0.1250 (  4052 PWs)   bands (ev):

     8.4605  11.6323  12.8774  13.1366  13.9588  14.7868  30.8948  33.6207
    35.0088

          k =-0.2500 0.5000-0.2500 (  4062 PWs)   bands (ev):

     9.5502  12.1503  12.3737  13.0018  15.4798  15.4862  25.9980  32.5302
    34.1025

          k = 0.6250-0.3750 0.6250 (  4063 PWs)   bands (ev):

     9.6991  12.0548  12.7604  13.6342  15.8110  17.7933  21.6514  31.5303
    33.9379

          k = 0.5000-0.2500 0.5000 (  4066 PWs)   bands (ev):

     9.7278  12.1582  12.7521  13.4322  15.2016  17.2703  22.9976  31.4430
    33.1823

          k = 0.3750-0.1250 0.3750 (  4073 PWs)   bands (ev):

     9.3502  11.9420  12.5920  13.0196  14.1289  15.7564  27.6725  32.1261
    34.5572

          k = 0.2500 0.0000 0.2500 (  4067 PWs)   bands (ev):

     7.9937  11.8950  12.8258  12.9530  13.7789  14.6865  31.6856  32.8488
    35.6193

          k = 0.0000 0.5000 0.0000 (  4064 PWs)   bands (ev):

     9.1297  11.0372  13.1598  13.9113  13.9113  14.9746  32.6867  32.6867
    33.5188

          k =-0.1250 0.6250-0.1250 (  4069 PWs)   bands (ev):

     9.9415  10.8093  12.8838  14.1210  15.5617  15.6265  28.0241  31.2460
    31.7123

          k = 0.7500-0.2500 0.7500 (  4077 PWs)   bands (ev):

    10.2477  11.2906  12.7181  13.8405  15.8927  18.7460  23.1218  29.5195
    31.2902

          k = 0.6250-0.1250 0.6250 (  4075 PWs)   bands (ev):

    10.5781  11.6110  12.5876  13.6129  15.2543  19.6036  22.7298  27.8254
    33.2750

          k = 0.5000 0.0000 0.5000 (  4069 PWs)   bands (ev):

    10.6434  11.7078  12.0663  13.5095  14.2629  17.5306  26.3772  28.2705
    34.0368

          k = 0.0000 0.7500 0.0000 (  4076 PWs)   bands (ev):

     9.7256  10.2226  15.1294  15.3733  15.3733  15.4982  28.2384  29.0625
    29.0626

          k = 0.8750-0.1250 0.8750 (  4084 PWs)   bands (ev):

     9.8219  10.2483  14.5078  15.1644  16.0101  18.6552  24.5113  27.2390
    28.6200

          k = 0.7500 0.0000 0.7500 (  4089 PWs)   bands (ev):

    10.2401  10.9531  13.3213  14.6035  15.6188  21.5666  22.3439  25.4423
    30.3610

          k = 0.0000-1.0000 0.0000 (  4088 PWs)   bands (ev):

     9.5043   9.9143  15.7275  16.1855  16.1855  17.9678  24.1006  27.4319
    27.4319

          k =-0.2500 0.5000 0.0000 (  4069 PWs)   bands (ev):

     9.6644  11.2789  12.4288  13.9170  13.9842  15.8008  29.1574  31.0717
    33.9342

          k = 0.6250-0.3750 0.8750 (  4081 PWs)   bands (ev):

    10.4199  11.7323  11.9917  13.6482  15.1313  17.6234  24.8548  29.8693
    32.0940

          k = 0.5000-0.2500 0.7500 (  4072 PWs)   bands (ev):

    10.4363  11.5372  12.7955  13.4078  15.5965  20.1785  21.0682  30.1712
    30.8813

          k = 0.7500-0.2500 1.0000 (  4069 PWs)   bands (ev):

    10.3003  10.6395  12.9176  14.9550  15.3635  17.8283  26.1524  28.0079
    29.6895

          k = 0.6250-0.1250 0.8750 (  4080 PWs)   bands (ev):

    10.6017  11.1243  12.5480  14.3202  15.8258  20.9656  22.8059  26.6846
    28.9400

          k = 0.5000 0.0000 0.7500 (  4080 PWs)   bands (ev):

    11.1341  11.4383  11.8124  14.0621  15.3724  19.8116  25.0218  25.3857
    30.5264

          k =-0.2500-1.0000 0.0000 (  4078 PWs)   bands (ev):

    10.0299  10.3879  13.9863  15.0100  16.1869  20.6134  23.2748  26.5067
    27.4323

          k =-0.5000-1.0000 0.0000 (  4128 PWs)   bands (ev):

    10.7836  11.7804  11.7804  14.0331  16.1884  22.7134  23.9506  23.9506
    27.3797

     the Fermi energy is    15.7336 ev

!    total energy              =     -66.17168880 Ry
     estimated scf accuracy    <          9.7E-10 Ry
     smearing contrib. (-TS)   =      -0.00562955 Ry
     internal energy E=F+TS    =     -66.16605925 Ry

     The total energy is F=E-TS. E is the sum of the following terms:
     one-electron contribution =      14.36643254 Ry
     hartree contribution      =       4.69792993 Ry
     xc contribution           =     -24.73613390 Ry
     ewald contribution        =     -60.49428782 Ry

     convergence has been achieved in   9 iterations

     Writing all to output data dir ./Ptbulk.save/
 
     init_run     :     14.17s CPU     14.24s WALL (       1 calls)
     electrons    :      9.76s CPU     10.16s WALL (       1 calls)

     Called by init_run:
     wfcinit      :      0.09s CPU      0.10s WALL (       1 calls)
     potinit      :     12.87s CPU     12.93s WALL (       1 calls)
     hinit0       :      1.18s CPU      1.17s WALL (       1 calls)

     Called by electrons:
     c_bands      :      4.94s CPU      4.94s WALL (      10 calls)
     sum_band     :      0.72s CPU      0.73s WALL (      10 calls)
     v_of_rho     :     15.60s CPU     15.95s WALL (      10 calls)
     newd         :      0.13s CPU      0.16s WALL (      10 calls)
     mix_rho      :      0.07s CPU      0.08s WALL (      10 calls)
     vdW_kernel   :     11.33s CPU     11.33s WALL (       1 calls)

     Called by c_bands:
     init_us_2    :      0.04s CPU      0.07s WALL (      42 calls)
     init_us_2:cp :      0.04s CPU      0.07s WALL (      42 calls)
     ccgdiagg     :      3.43s CPU      3.44s WALL (      20 calls)
     wfcrot       :      0.78s CPU      0.79s WALL (      18 calls)

     Called by *cgdiagg:
     h_psi        :      3.77s CPU      3.74s WALL (     665 calls)
     s_psi        :      0.16s CPU      0.15s WALL (    1312 calls)

     Called by h_psi:
     h_psi:calbec :      0.16s CPU      0.14s WALL (     665 calls)
     vloc_psi     :      3.49s CPU      3.48s WALL (     665 calls)
     add_vuspsi   :      0.07s CPU      0.09s WALL (     665 calls)
     hs_1psi      :      3.10s CPU      3.10s WALL (     647 calls)
     s_1psi       :      0.15s CPU      0.16s WALL (     647 calls)

     General routines
     calbec       :      0.22s CPU      0.22s WALL (    1332 calls)
     fft          :      1.17s CPU      1.18s WALL (     611 calls)
     ffts         :      0.01s CPU      0.02s WALL (      10 calls)
     fftw         :      3.39s CPU      3.28s WALL (    1798 calls)
 
     Parallel routines
 
     PWSCF        :     24.13s CPU     26.52s WALL

 
   This run was terminated on:   9:47:33  10Oct2022            

=------------------------------------------------------------------------------=
   JOB DONE.
=------------------------------------------------------------------------------=
