
     Program PWSCF v.7.1 starts on  7Oct2022 at 10:48:13 

     This program is part of the open-source Quantum ESPRESSO suite
     for quantum simulation of materials; please cite
         "P. Giannozzi et al., J. Phys.:Condens. Matter 21 395502 (2009);
         "P. Giannozzi et al., J. Phys.:Condens. Matter 29 465901 (2017);
         "P. Giannozzi et al., J. Chem. Phys. 152 154105 (2020);
          URL http://www.quantum-espresso.org", 
     in publications or presentations arising from this work. More details at
     http://www.quantum-espresso.org/quote

     Parallel version (MPI), running on    24 processors

     MPI processes distributed on     3 nodes
     93356 MiB available memory on the printing compute node when the environment starts
 
     Waiting for input...
     Reading input from standard input

     Current dimensions of program PWSCF are:
     Max number of different atomic species (ntypx) = 10
     Max number of k-points (npk) =  40000
     Max angular momentum in pseudopotentials (lmaxx) =  4
     file Pt.pbe-n-rrkjus_psl.1.0.0.UPF: wavefunction(s)  6S renormalized

     **************************************************************************
     Initializing libbeef V0.1.2 with the BEEF-vdW functional.
     Citation: Wellendorff et al., PRB 85, 235149 (2012).
     **************************************************************************


     IMPORTANT: XC functional enforced from input :
     Exchange-correlation= BEEF-VDW
                           (   1   4  43  14   2   0   0)
     Any further DFT definition will be discarded
     Please, verify this is what you really want

 
     K-points division:     npool     =      24
     Subspace diagonalization in iterative solution of the eigenvalue problem:
     a serial algorithm will be used

 
     G-vector sticks info
     --------------------
     sticks:   dense  smooth     PW     G-vecs:    dense   smooth      PW
     Sum        1309    1309    379                31415    31415    5029
 
     Using Slab Decomposition
 


     bravais-lattice index     =            2
     lattice parameter (alat)  =       7.5000  a.u.
     unit-cell volume          =     105.4688 (a.u.)^3
     number of atoms/cell      =            1
     number of atomic types    =            1
     number of electrons       =        10.00
     number of Kohn-Sham states=            9
     kinetic-energy cutoff     =     170.0000  Ry
     charge density cutoff     =     680.0000  Ry
     scf convergence threshold =      1.0E-09
     mixing beta               =       0.7000
     number of iterations used =            8  plain     mixing
     Exchange-correlation= BEEF-VDW
                           (   1   4  43  14   2   0   0)

     celldm(1)=   7.500000  celldm(2)=   0.000000  celldm(3)=   0.000000
     celldm(4)=   0.000000  celldm(5)=   0.000000  celldm(6)=   0.000000

     crystal axes: (cart. coord. in units of alat)
               a(1) = (  -0.500000   0.000000   0.500000 )  
               a(2) = (   0.000000   0.500000   0.500000 )  
               a(3) = (  -0.500000   0.500000   0.000000 )  

     reciprocal axes: (cart. coord. in units 2 pi/alat)
               b(1) = ( -1.000000 -1.000000  1.000000 )  
               b(2) = (  1.000000  1.000000  1.000000 )  
               b(3) = ( -1.000000  1.000000 -1.000000 )  


     PseudoPot. # 1 for Pt read from file:
     ./pseudo/Pt.pbe-n-rrkjus_psl.1.0.0.UPF
     MD5 check sum: 6bc887cfe28d63a5fc1f72d35a7d3ef7
     Pseudo is Ultrasoft + core correction, Zval = 10.0
     Generated using &quot;atomic&quot; code by A. Dal Corso  v.6.3
     Using radial grid of 1277 points,  6 beta functions with: 
                l(1) =   0
                l(2) =   0
                l(3) =   1
                l(4) =   1
                l(5) =   2
                l(6) =   2
     Q(r) pseudized with 0 coefficients 


     atomic species   valence    mass     pseudopotential
        Pt            10.00   195.07800     Pt( 1.00)

     48 Sym. Ops., with inversion, found



   Cartesian axes

     site n.     atom                  positions (alat units)
         1           Pt  tau(   1) = (   0.0000000   0.0000000   0.0000000  )

     number of k points=    29  Gaussian smearing, width (Ry)=  0.0200
                       cart. coord. in units 2pi/alat
        k(    1) = (   0.0000000   0.0000000   0.0000000), wk =   0.0039062
        k(    2) = (  -0.1250000   0.1250000  -0.1250000), wk =   0.0312500
        k(    3) = (  -0.2500000   0.2500000  -0.2500000), wk =   0.0312500
        k(    4) = (  -0.3750000   0.3750000  -0.3750000), wk =   0.0312500
        k(    5) = (   0.5000000  -0.5000000   0.5000000), wk =   0.0156250
        k(    6) = (   0.0000000   0.2500000   0.0000000), wk =   0.0234375
        k(    7) = (  -0.1250000   0.3750000  -0.1250000), wk =   0.0937500
        k(    8) = (  -0.2500000   0.5000000  -0.2500000), wk =   0.0937500
        k(    9) = (   0.6250000  -0.3750000   0.6250000), wk =   0.0937500
        k(   10) = (   0.5000000  -0.2500000   0.5000000), wk =   0.0937500
        k(   11) = (   0.3750000  -0.1250000   0.3750000), wk =   0.0937500
        k(   12) = (   0.2500000   0.0000000   0.2500000), wk =   0.0468750
        k(   13) = (   0.0000000   0.5000000   0.0000000), wk =   0.0234375
        k(   14) = (  -0.1250000   0.6250000  -0.1250000), wk =   0.0937500
        k(   15) = (   0.7500000  -0.2500000   0.7500000), wk =   0.0937500
        k(   16) = (   0.6250000  -0.1250000   0.6250000), wk =   0.0937500
        k(   17) = (   0.5000000   0.0000000   0.5000000), wk =   0.0468750
        k(   18) = (   0.0000000   0.7500000   0.0000000), wk =   0.0234375
        k(   19) = (   0.8750000  -0.1250000   0.8750000), wk =   0.0937500
        k(   20) = (   0.7500000   0.0000000   0.7500000), wk =   0.0468750
        k(   21) = (   0.0000000  -1.0000000   0.0000000), wk =   0.0117188
        k(   22) = (  -0.2500000   0.5000000   0.0000000), wk =   0.0937500
        k(   23) = (   0.6250000  -0.3750000   0.8750000), wk =   0.1875000
        k(   24) = (   0.5000000  -0.2500000   0.7500000), wk =   0.0937500
        k(   25) = (   0.7500000  -0.2500000   1.0000000), wk =   0.0937500
        k(   26) = (   0.6250000  -0.1250000   0.8750000), wk =   0.1875000
        k(   27) = (   0.5000000   0.0000000   0.7500000), wk =   0.0937500
        k(   28) = (  -0.2500000  -1.0000000   0.0000000), wk =   0.0468750
        k(   29) = (  -0.5000000  -1.0000000   0.0000000), wk =   0.0234375

     Dense  grid:    31415 G-vectors     FFT dimensions: (  45,  45,  45)

     Estimated max dynamical RAM per process >      28.31 MB

     Estimated total dynamical RAM >     503.12 MB

     Initial potential from superposition of free atoms

     starting charge       9.9998, renormalised to      10.0000


     %%%%%%%%%%%%%%%%%%%%%%%%%%%%%%%%%%%%%%%%%%%%%%%%%%%%%%%%%%%%%%%%%%%%%%%%
     %                                                                      %
     % You are using vdW-DF, which was implemented by the Thonhauser group. %
     % Please cite the following two papers that made this development      %
     % possible and the two reviews that describe the various versions:     %
     %                                                                      %
     %   T. Thonhauser et al., PRL 115, 136402 (2015).                      %
     %   T. Thonhauser et al., PRB 76, 125112 (2007).                       %
     %   K. Berland et al., Rep. Prog. Phys. 78, 066501 (2015).             %
     %   D.C. Langreth et al., J. Phys.: Condens. Matter 21, 084203 (2009). %
     %                                                                      %
     % If you are calculating stress with vdW-DF, please also cite:         %
     %                                                                      %
     %   R. Sabatini et al., J. Phys.: Condens. Matter 24, 424209 (2012).   %
     %                                                                      %
     %%%%%%%%%%%%%%%%%%%%%%%%%%%%%%%%%%%%%%%%%%%%%%%%%%%%%%%%%%%%%%%%%%%%%%%%

     %%%%%%%%%%%%%%%%%%%%%%%%%%%%%%%%%%%%%%%%%%%%%%%%%%%%%%%%%%%%%%%%%%%%%%%%
     %                                                                      %
     %  vdW-DF NEWS:                                                        %
     %                                                                      %
     %  * vdW-DF3 is now available. DOI: 10.1021/acs.jctc.0c00471           %
     %    use with input_dft = 'vdW-DF3-opt1' or 'vdW-DF3-opt2'             %
     %                                                                      %
     %  * Unscreened and range-separated vdW-DF hybrid functionals          %
     %    DOI: 10.1063/1.4986522 and 10.1088/1361-648X/ac2ad2               %
     %    use with input_dft = 'vdW-DF-cx0' (etc) and 'vdW-DF-ahcx'         %
     %                                                                      %
     %%%%%%%%%%%%%%%%%%%%%%%%%%%%%%%%%%%%%%%%%%%%%%%%%%%%%%%%%%%%%%%%%%%%%%%%


     Starting wfcs are    9 randomized atomic wfcs

     total cpu time spent up to now is       15.6 secs

     Self-consistent Calculation

     iteration #  1     ecut=   170.00 Ry     beta= 0.70
     CG style diagonalization
     ethr =  1.00E-02,  avg # of iterations =  3.7

     Threshold (ethr) on eigenvalues was too large:
     Diagonalizing with lowered threshold

     CG style diagonalization
     ethr =  1.07E-04,  avg # of iterations =  6.0

     total cpu time spent up to now is       17.4 secs

     total energy              =     -66.16420576 Ry
     estimated scf accuracy    <       0.03191999 Ry

     iteration #  2     ecut=   170.00 Ry     beta= 0.70
     CG style diagonalization
     ethr =  3.19E-04,  avg # of iterations =  3.1

     total cpu time spent up to now is       18.2 secs

     total energy              =     -66.16994787 Ry
     estimated scf accuracy    <       0.00137312 Ry

     iteration #  3     ecut=   170.00 Ry     beta= 0.70
     CG style diagonalization
     ethr =  1.37E-05,  avg # of iterations =  5.1

     total cpu time spent up to now is       19.4 secs

     total energy              =     -66.17090529 Ry
     estimated scf accuracy    <       0.00014946 Ry

     iteration #  4     ecut=   170.00 Ry     beta= 0.70
     CG style diagonalization
     ethr =  1.49E-06,  avg # of iterations =  4.4

     total cpu time spent up to now is       20.4 secs

     total energy              =     -66.17095629 Ry
     estimated scf accuracy    <       0.00002766 Ry

     iteration #  5     ecut=   170.00 Ry     beta= 0.70
     CG style diagonalization
     ethr =  2.77E-07,  avg # of iterations =  4.2

     total cpu time spent up to now is       21.4 secs

     total energy              =     -66.17097944 Ry
     estimated scf accuracy    <       0.00000735 Ry

     iteration #  6     ecut=   170.00 Ry     beta= 0.70
     CG style diagonalization
     ethr =  7.35E-08,  avg # of iterations =  3.4

     total cpu time spent up to now is       22.3 secs

     total energy              =     -66.17098056 Ry
     estimated scf accuracy    <       0.00000091 Ry

     iteration #  7     ecut=   170.00 Ry     beta= 0.70
     CG style diagonalization
     ethr =  9.05E-09,  avg # of iterations =  4.1

     total cpu time spent up to now is       23.3 secs

     total energy              =     -66.17098117 Ry
     estimated scf accuracy    <       0.00000025 Ry

     iteration #  8     ecut=   170.00 Ry     beta= 0.70
     CG style diagonalization
     ethr =  2.51E-09,  avg # of iterations =  3.6

     total cpu time spent up to now is       24.2 secs

     End of self-consistent calculation

          k = 0.0000 0.0000 0.0000 (  3839 PWs)   bands (ev):

     6.9569  12.9987  12.9987  12.9987  14.9685  14.9685  32.3969  37.0974
    37.0975

          k =-0.1250 0.1250-0.1250 (  3912 PWs)   bands (ev):

     7.5443  12.7831  13.2058  13.2058  14.8820  14.8820  33.1400  34.3373
    37.8781

          k =-0.2500 0.2500-0.2500 (  3939 PWs)   bands (ev):

     8.9248  12.7187  13.3444  13.3444  15.1586  15.1586  29.9923  33.7756
    39.2342

          k =-0.3750 0.3750-0.3750 (  3915 PWs)   bands (ev):

     9.6732  13.0773  13.0773  14.3923  16.0487  16.0487  25.2301  32.4231
    37.3079

          k = 0.5000-0.5000 0.5000 (  3906 PWs)   bands (ev):

     9.7104  12.9281  12.9281  16.4486  16.5343  16.5343  22.2134  31.7899
    36.0934

          k = 0.0000 0.2500 0.0000 (  3919 PWs)   bands (ev):

     7.7444  12.5281  13.4063  13.4063  14.4580  15.1710  33.5062  35.3604
    36.6759

          k =-0.1250 0.3750-0.1250 (  3938 PWs)   bands (ev):

     8.9255  12.1579  13.4672  13.7423  14.6065  15.4850  31.8787  34.4973
    36.1003

          k =-0.2500 0.5000-0.2500 (  3924 PWs)   bands (ev):

    10.0194  12.7007  12.9377  13.5995  16.1982  16.2235  26.9872  33.3663
    35.1889

          k = 0.6250-0.3750 0.6250 (  3950 PWs)   bands (ev):

    10.1562  12.5992  13.3448  14.2459  16.5675  18.5643  22.6073  32.3502
    34.9866

          k = 0.5000-0.2500 0.5000 (  3940 PWs)   bands (ev):

    10.1898  12.7089  13.3358  14.0331  15.9200  18.0605  23.9619  32.3285
    34.1521

          k = 0.3750-0.1250 0.3750 (  3935 PWs)   bands (ev):

     9.8276  12.4851  13.1647  13.6177  14.7860  16.5029  28.6685  33.1083
    35.5303

          k = 0.2500 0.0000 0.2500 (  3931 PWs)   bands (ev):

     8.4483  12.4342  13.4146  13.5491  14.4188  15.3783  32.6179  33.7811
    36.5816

          k = 0.0000 0.5000 0.0000 (  3928 PWs)   bands (ev):

     9.6042  11.5322  13.7632  14.5567  14.5567  15.6844  33.7398  33.7399
    34.4382

          k =-0.1250 0.6250-0.1250 (  3959 PWs)   bands (ev):

    10.4146  11.2948  13.4744  14.7777  16.3042  16.3503  29.0235  32.2631
    32.7538

          k = 0.7500-0.2500 0.7500 (  3960 PWs)   bands (ev):

    10.7158  11.7960  13.2996  14.4809  16.6541  19.5783  24.0342  30.5581
    32.3025

          k = 0.6250-0.1250 0.6250 (  3945 PWs)   bands (ev):

    11.0636  12.1309  13.1583  14.2403  15.9755  20.4536  23.6723  28.8405
    34.3577

          k = 0.5000 0.0000 0.5000 (  3943 PWs)   bands (ev):

    11.1522  12.2381  12.6073  14.1313  14.9275  18.3520  27.3517  29.3207
    34.9315

          k = 0.0000 0.7500 0.0000 (  3964 PWs)   bands (ev):

    10.1711  10.6791  15.7942  16.0997  16.0997  16.2380  29.3444  30.0073
    30.0073

          k = 0.8750-0.1250 0.8750 (  3957 PWs)   bands (ev):

    10.2625  10.7074  15.1698  15.8807  16.7781  19.4583  25.4792  28.2260
    29.5468

          k = 0.7500 0.0000 0.7500 (  3953 PWs)   bands (ev):

    10.6980  11.4455  13.9277  15.2855  16.3618  22.4518  23.2385  26.4499
    31.3572

          k = 0.0000-1.0000 0.0000 (  3984 PWs)   bands (ev):

     9.9299  10.3570  16.4810  16.9636  16.9636  18.6611  25.1758  28.3079
    28.3079

          k =-0.2500 0.5000 0.0000 (  3947 PWs)   bands (ev):

    10.1548  11.7867  12.9928  14.5627  14.6320  16.5500  30.1541  32.1439
    34.9093

          k = 0.6250-0.3750 0.8750 (  3947 PWs)   bands (ev):

    10.9084  12.2575  12.5393  14.2775  15.8431  18.4383  25.8176  30.9044
    33.0692

          k = 0.5000-0.2500 0.7500 (  3956 PWs)   bands (ev):

    10.9198  12.0521  13.3743  14.0245  16.3382  21.0045  22.0107  31.2291
    31.8469

          k = 0.7500-0.2500 1.0000 (  3967 PWs)   bands (ev):

    10.7680  11.1173  13.5088  15.6545  16.0896  18.6406  27.1240  28.9815
    30.7205

          k = 0.6250-0.1250 0.8750 (  3960 PWs)   bands (ev):

    11.0760  11.6251  13.1197  14.9844  16.5807  21.8667  23.6987  27.6906
    29.9374

          k = 0.5000 0.0000 0.7500 (  3959 PWs)   bands (ev):

    11.6314  11.9601  12.3481  14.7120  16.0997  20.6781  25.9957  26.3528
    31.5572

          k =-0.2500-1.0000 0.0000 (  3954 PWs)   bands (ev):

    10.4769  10.8544  14.6242  15.7156  16.9651  21.4418  24.2747  27.4117
    28.4013

          k =-0.5000-1.0000 0.0000 (  3972 PWs)   bands (ev):

    11.2614  12.3146  12.3146  14.6809  16.9667  23.6880  24.8567  24.8567
    28.3834

     the Fermi energy is    16.4778 ev

!    total energy              =     -66.17098127 Ry
     estimated scf accuracy    <          3.0E-10 Ry
     smearing contrib. (-TS)   =      -0.00537398 Ry
     internal energy E=F+TS    =     -66.16560729 Ry

     The total energy is F=E-TS. E is the sum of the following terms:
     one-electron contribution =      15.23170412 Ry
     hartree contribution      =       4.49890493 Ry
     xc contribution           =     -24.76472202 Ry
     ewald contribution        =     -61.13149432 Ry

     convergence has been achieved in   8 iterations

     Writing all to output data dir ./Ptbulk.save/
 
     init_run     :     15.21s CPU     15.28s WALL (       1 calls)
     electrons    :      8.45s CPU      8.70s WALL (       1 calls)

     Called by init_run:
     wfcinit      :      0.09s CPU      0.10s WALL (       1 calls)
     potinit      :     13.83s CPU     13.89s WALL (       1 calls)
     hinit0       :      1.24s CPU      1.24s WALL (       1 calls)

     Called by electrons:
     c_bands      :      4.01s CPU      4.03s WALL (       9 calls)
     sum_band     :      0.66s CPU      0.64s WALL (       9 calls)
     v_of_rho     :     15.98s CPU     16.23s WALL (       9 calls)
     newd         :      0.13s CPU      0.14s WALL (       9 calls)
     mix_rho      :      0.05s CPU      0.07s WALL (       9 calls)
     vdW_kernel   :     11.99s CPU     11.99s WALL (       1 calls)

     Called by c_bands:
     init_us_2    :      0.05s CPU      0.06s WALL (      38 calls)
     init_us_2:cp :      0.05s CPU      0.06s WALL (      38 calls)
     ccgdiagg     :      2.79s CPU      2.80s WALL (      18 calls)
     wfcrot       :      0.71s CPU      0.70s WALL (      16 calls)

     Called by *cgdiagg:
     h_psi        :      3.11s CPU      3.13s WALL (     556 calls)
     s_psi        :      0.13s CPU      0.12s WALL (    1096 calls)

     Called by h_psi:
     h_psi:calbec :      0.05s CPU      0.10s WALL (     556 calls)
     vloc_psi     :      3.00s CPU      2.95s WALL (     556 calls)
     add_vuspsi   :      0.03s CPU      0.07s WALL (     556 calls)
     hs_1psi      :      2.52s CPU      2.54s WALL (     540 calls)
     s_1psi       :      0.11s CPU      0.12s WALL (     540 calls)

     General routines
     calbec       :      0.11s CPU      0.17s WALL (    1114 calls)
     fft          :      1.03s CPU      1.08s WALL (     550 calls)
     ffts         :      0.03s CPU      0.02s WALL (       9 calls)
     fftw         :      2.85s CPU      2.89s WALL (    1530 calls)
 
     Parallel routines
 
     PWSCF        :     23.87s CPU     25.41s WALL

 
   This run was terminated on:  10:48:38   7Oct2022            

=------------------------------------------------------------------------------=
   JOB DONE.
=------------------------------------------------------------------------------=
