
     Program PWSCF v.7.1 starts on  7Oct2022 at 10:36:50 

     This program is part of the open-source Quantum ESPRESSO suite
     for quantum simulation of materials; please cite
         "P. Giannozzi et al., J. Phys.:Condens. Matter 21 395502 (2009);
         "P. Giannozzi et al., J. Phys.:Condens. Matter 29 465901 (2017);
         "P. Giannozzi et al., J. Chem. Phys. 152 154105 (2020);
          URL http://www.quantum-espresso.org", 
     in publications or presentations arising from this work. More details at
     http://www.quantum-espresso.org/quote

     Parallel version (MPI), running on    24 processors

     MPI processes distributed on     3 nodes
     74921 MiB available memory on the printing compute node when the environment starts
 
     Waiting for input...
     Reading input from standard input

     Current dimensions of program PWSCF are:
     Max number of different atomic species (ntypx) = 10
     Max number of k-points (npk) =  40000
     Max angular momentum in pseudopotentials (lmaxx) =  4
     file Pt.pbe-n-rrkjus_psl.1.0.0.UPF: wavefunction(s)  6S renormalized

     **************************************************************************
     Initializing libbeef V0.1.2 with the BEEF-vdW functional.
     Citation: Wellendorff et al., PRB 85, 235149 (2012).
     **************************************************************************


     IMPORTANT: XC functional enforced from input :
     Exchange-correlation= BEEF-VDW
                           (   1   4  43  14   2   0   0)
     Any further DFT definition will be discarded
     Please, verify this is what you really want

 
     K-points division:     npool     =      24
     Subspace diagonalization in iterative solution of the eigenvalue problem:
     a serial algorithm will be used

 
     G-vector sticks info
     --------------------
     sticks:   dense  smooth     PW     G-vecs:    dense   smooth      PW
     Sum        1285    1285    367                30155    30155    4693
 
     Using Slab Decomposition
 


     bravais-lattice index     =            2
     lattice parameter (alat)  =       7.3720  a.u.
     unit-cell volume          =     100.1604 (a.u.)^3
     number of atoms/cell      =            1
     number of atomic types    =            1
     number of electrons       =        10.00
     number of Kohn-Sham states=            9
     kinetic-energy cutoff     =     170.0000  Ry
     charge density cutoff     =     680.0000  Ry
     scf convergence threshold =      1.0E-09
     mixing beta               =       0.7000
     number of iterations used =            8  plain     mixing
     Exchange-correlation= BEEF-VDW
                           (   1   4  43  14   2   0   0)

     celldm(1)=   7.372000  celldm(2)=   0.000000  celldm(3)=   0.000000
     celldm(4)=   0.000000  celldm(5)=   0.000000  celldm(6)=   0.000000

     crystal axes: (cart. coord. in units of alat)
               a(1) = (  -0.500000   0.000000   0.500000 )  
               a(2) = (   0.000000   0.500000   0.500000 )  
               a(3) = (  -0.500000   0.500000   0.000000 )  

     reciprocal axes: (cart. coord. in units 2 pi/alat)
               b(1) = ( -1.000000 -1.000000  1.000000 )  
               b(2) = (  1.000000  1.000000  1.000000 )  
               b(3) = ( -1.000000  1.000000 -1.000000 )  


     PseudoPot. # 1 for Pt read from file:
     ./pseudo/Pt.pbe-n-rrkjus_psl.1.0.0.UPF
     MD5 check sum: 6bc887cfe28d63a5fc1f72d35a7d3ef7
     Pseudo is Ultrasoft + core correction, Zval = 10.0
     Generated using &quot;atomic&quot; code by A. Dal Corso  v.6.3
     Using radial grid of 1277 points,  6 beta functions with: 
                l(1) =   0
                l(2) =   0
                l(3) =   1
                l(4) =   1
                l(5) =   2
                l(6) =   2
     Q(r) pseudized with 0 coefficients 


     atomic species   valence    mass     pseudopotential
        Pt            10.00   195.07800     Pt( 1.00)

     48 Sym. Ops., with inversion, found



   Cartesian axes

     site n.     atom                  positions (alat units)
         1           Pt  tau(   1) = (   0.0000000   0.0000000   0.0000000  )

     number of k points=    29  Gaussian smearing, width (Ry)=  0.0200
                       cart. coord. in units 2pi/alat
        k(    1) = (   0.0000000   0.0000000   0.0000000), wk =   0.0039062
        k(    2) = (  -0.1250000   0.1250000  -0.1250000), wk =   0.0312500
        k(    3) = (  -0.2500000   0.2500000  -0.2500000), wk =   0.0312500
        k(    4) = (  -0.3750000   0.3750000  -0.3750000), wk =   0.0312500
        k(    5) = (   0.5000000  -0.5000000   0.5000000), wk =   0.0156250
        k(    6) = (   0.0000000   0.2500000   0.0000000), wk =   0.0234375
        k(    7) = (  -0.1250000   0.3750000  -0.1250000), wk =   0.0937500
        k(    8) = (  -0.2500000   0.5000000  -0.2500000), wk =   0.0937500
        k(    9) = (   0.6250000  -0.3750000   0.6250000), wk =   0.0937500
        k(   10) = (   0.5000000  -0.2500000   0.5000000), wk =   0.0937500
        k(   11) = (   0.3750000  -0.1250000   0.3750000), wk =   0.0937500
        k(   12) = (   0.2500000   0.0000000   0.2500000), wk =   0.0468750
        k(   13) = (   0.0000000   0.5000000   0.0000000), wk =   0.0234375
        k(   14) = (  -0.1250000   0.6250000  -0.1250000), wk =   0.0937500
        k(   15) = (   0.7500000  -0.2500000   0.7500000), wk =   0.0937500
        k(   16) = (   0.6250000  -0.1250000   0.6250000), wk =   0.0937500
        k(   17) = (   0.5000000   0.0000000   0.5000000), wk =   0.0468750
        k(   18) = (   0.0000000   0.7500000   0.0000000), wk =   0.0234375
        k(   19) = (   0.8750000  -0.1250000   0.8750000), wk =   0.0937500
        k(   20) = (   0.7500000   0.0000000   0.7500000), wk =   0.0468750
        k(   21) = (   0.0000000  -1.0000000   0.0000000), wk =   0.0117188
        k(   22) = (  -0.2500000   0.5000000   0.0000000), wk =   0.0937500
        k(   23) = (   0.6250000  -0.3750000   0.8750000), wk =   0.1875000
        k(   24) = (   0.5000000  -0.2500000   0.7500000), wk =   0.0937500
        k(   25) = (   0.7500000  -0.2500000   1.0000000), wk =   0.0937500
        k(   26) = (   0.6250000  -0.1250000   0.8750000), wk =   0.1875000
        k(   27) = (   0.5000000   0.0000000   0.7500000), wk =   0.0937500
        k(   28) = (  -0.2500000  -1.0000000   0.0000000), wk =   0.0468750
        k(   29) = (  -0.5000000  -1.0000000   0.0000000), wk =   0.0234375

     Dense  grid:    30155 G-vectors     FFT dimensions: (  45,  45,  45)

     Estimated max dynamical RAM per process >      27.49 MB

     Estimated total dynamical RAM >     490.34 MB

     Initial potential from superposition of free atoms

     starting charge       9.9998, renormalised to      10.0000


     %%%%%%%%%%%%%%%%%%%%%%%%%%%%%%%%%%%%%%%%%%%%%%%%%%%%%%%%%%%%%%%%%%%%%%%%
     %                                                                      %
     % You are using vdW-DF, which was implemented by the Thonhauser group. %
     % Please cite the following two papers that made this development      %
     % possible and the two reviews that describe the various versions:     %
     %                                                                      %
     %   T. Thonhauser et al., PRL 115, 136402 (2015).                      %
     %   T. Thonhauser et al., PRB 76, 125112 (2007).                       %
     %   K. Berland et al., Rep. Prog. Phys. 78, 066501 (2015).             %
     %   D.C. Langreth et al., J. Phys.: Condens. Matter 21, 084203 (2009). %
     %                                                                      %
     % If you are calculating stress with vdW-DF, please also cite:         %
     %                                                                      %
     %   R. Sabatini et al., J. Phys.: Condens. Matter 24, 424209 (2012).   %
     %                                                                      %
     %%%%%%%%%%%%%%%%%%%%%%%%%%%%%%%%%%%%%%%%%%%%%%%%%%%%%%%%%%%%%%%%%%%%%%%%

     %%%%%%%%%%%%%%%%%%%%%%%%%%%%%%%%%%%%%%%%%%%%%%%%%%%%%%%%%%%%%%%%%%%%%%%%
     %                                                                      %
     %  vdW-DF NEWS:                                                        %
     %                                                                      %
     %  * vdW-DF3 is now available. DOI: 10.1021/acs.jctc.0c00471           %
     %    use with input_dft = 'vdW-DF3-opt1' or 'vdW-DF3-opt2'             %
     %                                                                      %
     %  * Unscreened and range-separated vdW-DF hybrid functionals          %
     %    DOI: 10.1063/1.4986522 and 10.1088/1361-648X/ac2ad2               %
     %    use with input_dft = 'vdW-DF-cx0' (etc) and 'vdW-DF-ahcx'         %
     %                                                                      %
     %%%%%%%%%%%%%%%%%%%%%%%%%%%%%%%%%%%%%%%%%%%%%%%%%%%%%%%%%%%%%%%%%%%%%%%%


     Starting wfcs are    9 randomized atomic wfcs

     total cpu time spent up to now is       15.4 secs

     Self-consistent Calculation

     iteration #  1     ecut=   170.00 Ry     beta= 0.70
     CG style diagonalization
     ethr =  1.00E-02,  avg # of iterations =  3.9

     Threshold (ethr) on eigenvalues was too large:
     Diagonalizing with lowered threshold

     CG style diagonalization
     ethr =  9.56E-05,  avg # of iterations =  6.1

     total cpu time spent up to now is       17.4 secs

     total energy              =     -66.16017309 Ry
     estimated scf accuracy    <       0.03067406 Ry

     iteration #  2     ecut=   170.00 Ry     beta= 0.70
     CG style diagonalization
     ethr =  3.07E-04,  avg # of iterations =  3.1

     total cpu time spent up to now is       18.3 secs

     total energy              =     -66.16500546 Ry
     estimated scf accuracy    <       0.00079605 Ry

     iteration #  3     ecut=   170.00 Ry     beta= 0.70
     CG style diagonalization
     ethr =  7.96E-06,  avg # of iterations =  5.8

     total cpu time spent up to now is       19.5 secs

     total energy              =     -66.16587667 Ry
     estimated scf accuracy    <       0.00021786 Ry

     iteration #  4     ecut=   170.00 Ry     beta= 0.70
     CG style diagonalization
     ethr =  2.18E-06,  avg # of iterations =  4.2

     total cpu time spent up to now is       20.5 secs

     total energy              =     -66.16587950 Ry
     estimated scf accuracy    <       0.00018664 Ry

     iteration #  5     ecut=   170.00 Ry     beta= 0.70
     CG style diagonalization
     ethr =  1.87E-06,  avg # of iterations =  3.3

     total cpu time spent up to now is       21.5 secs

     total energy              =     -66.16592700 Ry
     estimated scf accuracy    <       0.00000075 Ry

     iteration #  6     ecut=   170.00 Ry     beta= 0.70
     CG style diagonalization
     ethr =  7.52E-09,  avg # of iterations =  5.8

     total cpu time spent up to now is       22.7 secs

     total energy              =     -66.16593266 Ry
     estimated scf accuracy    <       0.00000102 Ry

     iteration #  7     ecut=   170.00 Ry     beta= 0.70
     CG style diagonalization
     ethr =  7.52E-09,  avg # of iterations =  3.0

     total cpu time spent up to now is       23.6 secs

     total energy              =     -66.16593206 Ry
     estimated scf accuracy    <       0.00000088 Ry

     iteration #  8     ecut=   170.00 Ry     beta= 0.70
     CG style diagonalization
     ethr =  7.52E-09,  avg # of iterations =  3.5

     total cpu time spent up to now is       24.5 secs

     total energy              =     -66.16593236 Ry
     estimated scf accuracy    <       0.00000007 Ry

     iteration #  9     ecut=   170.00 Ry     beta= 0.70
     CG style diagonalization
     ethr =  7.15E-10,  avg # of iterations =  4.0

     total cpu time spent up to now is       25.5 secs

     total energy              =     -66.16593241 Ry
     estimated scf accuracy    <       0.00000007 Ry

     iteration # 10     ecut=   170.00 Ry     beta= 0.70
     CG style diagonalization
     ethr =  6.79E-10,  avg # of iterations =  3.1

     total cpu time spent up to now is       26.4 secs

     total energy              =     -66.16593241 Ry
     estimated scf accuracy    <       0.00000013 Ry

     iteration # 11     ecut=   170.00 Ry     beta= 0.70
     CG style diagonalization
     ethr =  6.79E-10,  avg # of iterations =  3.0

     total cpu time spent up to now is       27.3 secs

     total energy              =     -66.16593235 Ry
     estimated scf accuracy    <       0.00000013 Ry

     iteration # 12     ecut=   170.00 Ry     beta= 0.70
     CG style diagonalization
     ethr =  6.79E-10,  avg # of iterations =  3.0

     total cpu time spent up to now is       28.2 secs

     total energy              =     -66.16593236 Ry
     estimated scf accuracy    <       0.00000001 Ry

     iteration # 13     ecut=   170.00 Ry     beta= 0.70
     CG style diagonalization
     ethr =  1.26E-10,  avg # of iterations =  3.0

     total cpu time spent up to now is       29.1 secs

     total energy              =     -66.16593236 Ry
     estimated scf accuracy    <          9.9E-09 Ry

     iteration # 14     ecut=   170.00 Ry     beta= 0.70
     CG style diagonalization
     ethr =  9.95E-11,  avg # of iterations =  3.0

     total cpu time spent up to now is       30.0 secs

     total energy              =     -66.16593236 Ry
     estimated scf accuracy    <       0.00000001 Ry

     iteration # 15     ecut=   170.00 Ry     beta= 0.70
     CG style diagonalization
     ethr =  9.95E-11,  avg # of iterations =  3.5

     total cpu time spent up to now is       30.9 secs

     End of self-consistent calculation

          k = 0.0000 0.0000 0.0000 (  3719 PWs)   bands (ev):

     7.6711  13.9741  13.9741  13.9741  16.1245  16.1245  33.6321  38.6476
    38.6476

          k =-0.1250 0.1250-0.1250 (  3752 PWs)   bands (ev):

     8.2880  13.7364  14.1979  14.1979  16.0265  16.0265  34.4792  35.8481
    39.5179

          k =-0.2500 0.2500-0.2500 (  3744 PWs)   bands (ev):

     9.7165  13.6661  14.3467  14.3467  16.3230  16.3230  31.6436  35.1992
    41.1995

          k =-0.3750 0.3750-0.3750 (  3750 PWs)   bands (ev):

    10.4435  14.0552  14.0552  15.4392  17.2978  17.2978  26.9191  33.7204
    39.1719

          k = 0.5000-0.5000 0.5000 (  3750 PWs)   bands (ev):

    10.4638  13.8928  13.8928  17.5308  17.8337  17.8337  23.9005  33.0284
    37.8460

          k = 0.0000 0.2500 0.0000 (  3747 PWs)   bands (ev):

     8.4983  13.4582  14.4154  14.4154  15.5592  16.3448  34.8564  36.8688
    38.3679

          k =-0.1250 0.3750-0.1250 (  3738 PWs)   bands (ev):

     9.7285  13.0553  14.4758  14.7793  15.7173  16.6846  33.5359  35.9920
    37.9538

          k =-0.2500 0.5000-0.2500 (  3752 PWs)   bands (ev):

    10.8244  13.6443  13.9020  14.6224  17.4334  17.4921  28.6816  34.7889
    37.0414

          k = 0.6250-0.3750 0.6250 (  3748 PWs)   bands (ev):

    10.9382  13.5285  14.3442  15.2970  17.8702  19.8951  24.2545  33.7297
    36.7691

          k = 0.5000-0.2500 0.5000 (  3743 PWs)   bands (ev):

    10.9806  13.6490  14.3338  15.0664  17.1547  19.4237  25.6225  33.7990
    35.8370

          k = 0.3750-0.1250 0.3750 (  3742 PWs)   bands (ev):

    10.6493  13.4153  14.1438  14.6409  15.9127  17.7879  30.3653  34.7605
    37.2188

          k = 0.2500 0.0000 0.2500 (  3719 PWs)   bands (ev):

     9.2339  13.3552  14.4222  14.5691  15.5152  16.5666  34.1846  35.3419
    38.2318

          k = 0.0000 0.5000 0.0000 (  3727 PWs)   bands (ev):

    10.4221  12.3756  14.7969  15.6633  15.6633  16.9049  35.5369  35.5370
    36.0025

          k =-0.1250 0.6250-0.1250 (  3753 PWs)   bands (ev):

    11.2251  12.1229  14.4876  15.9038  17.5823  17.5950  30.7317  34.0020
    34.5192

          k = 0.7500-0.2500 0.7500 (  3747 PWs)   bands (ev):

    11.5147  12.6597  14.2977  15.5785  17.9656  21.0116  25.6016  32.3309
    34.0321

          k = 0.6250-0.1250 0.6250 (  3742 PWs)   bands (ev):

    11.8932  13.0199  14.1379  15.3148  17.2152  21.9145  25.2981  30.5820
    36.2087

          k = 0.5000 0.0000 0.5000 (  3759 PWs)   bands (ev):

    12.0267  13.1454  13.5321  15.1956  16.0672  19.7684  29.0185  31.1297
    36.4494

          k = 0.0000 0.7500 0.0000 (  3748 PWs)   bands (ev):

    10.9312  11.4559  16.9397  17.3487  17.3487  17.5115  31.2425  31.6234
    31.6234

          k = 0.8750-0.1250 0.8750 (  3750 PWs)   bands (ev):

    11.0126  11.4894  16.3069  17.1118  18.1013  20.8451  27.1267  29.9340
    31.1316

          k = 0.7500 0.0000 0.7500 (  3741 PWs)   bands (ev):

    11.4775  12.2874  14.9689  16.4558  17.6400  23.9627  24.7852  28.1887
    33.0624

          k = 0.0000-1.0000 0.0000 (  3812 PWs)   bands (ev):

    10.6538  11.1101  17.7788  18.3046  18.3046  19.8600  27.0263  29.8040
    29.8040

          k =-0.2500 0.5000 0.0000 (  3748 PWs)   bands (ev):

    11.0005  12.6534  13.9564  15.6696  15.7429  17.8397  31.8488  33.9823
    36.5677

          k = 0.6250-0.3750 0.8750 (  3747 PWs)   bands (ev):

    11.7454  13.1549  13.4772  15.3557  17.0661  19.8432  27.4706  32.6756
    34.7198

          k = 0.5000-0.2500 0.7500 (  3748 PWs)   bands (ev):

    11.7475  12.9300  14.3682  15.0805  17.6142  22.4313  23.6307  33.0404
    33.4864

          k = 0.7500-0.2500 1.0000 (  3748 PWs)   bands (ev):

    11.5666  11.9321  14.5233  16.8561  17.3381  20.0418  28.7839  30.6509
    32.4896

          k = 0.6250-0.1250 0.8750 (  3755 PWs)   bands (ev):

    11.8844  12.4815  14.1002  16.1235  17.8803  23.4169  25.2327  29.4202
    31.6484

          k = 0.5000 0.0000 0.7500 (  3757 PWs)   bands (ev):

    12.4786  12.8557  13.2655  15.8260  17.3501  22.1678  27.6679  28.0200
    33.3212

          k =-0.2500-1.0000 0.0000 (  3754 PWs)   bands (ev):

    11.2381  11.6498  15.7198  16.9274  18.3063  22.8748  25.9846  28.9601
    30.0710

          k =-0.5000-1.0000 0.0000 (  3736 PWs)   bands (ev):

    12.0762  13.2294  13.2294  15.7904  18.3081  25.3585  26.4165  26.4165
    30.1101

     the Fermi energy is    17.7598 ev

!    total energy              =     -66.16593236 Ry
     estimated scf accuracy    <          1.6E-10 Ry
     smearing contrib. (-TS)   =      -0.00489441 Ry
     internal energy E=F+TS    =     -66.16103795 Ry

     The total energy is F=E-TS. E is the sum of the following terms:
     one-electron contribution =      16.66402751 Ry
     hartree contribution      =       4.18528426 Ry
     xc contribution           =     -24.81742956 Ry
     ewald contribution        =     -62.19292016 Ry

     convergence has been achieved in  15 iterations

     Writing all to output data dir ./Ptbulk.save/
 
     init_run     :     14.83s CPU     14.97s WALL (       1 calls)
     electrons    :     15.09s CPU     15.64s WALL (       1 calls)

     Called by init_run:
     wfcinit      :      0.10s CPU      0.10s WALL (       1 calls)
     potinit      :     13.35s CPU     13.39s WALL (       1 calls)
     hinit0       :      1.33s CPU      1.43s WALL (       1 calls)

     Called by electrons:
     c_bands      :      6.63s CPU      6.65s WALL (      16 calls)
     sum_band     :      1.18s CPU      1.18s WALL (      16 calls)
     v_of_rho     :     19.16s CPU     19.55s WALL (      16 calls)
     newd         :      0.31s CPU      0.32s WALL (      16 calls)
     mix_rho      :      0.16s CPU      0.17s WALL (      16 calls)
     vdW_kernel   :     11.96s CPU     11.96s WALL (       1 calls)

     Called by c_bands:
     init_us_2    :      0.11s CPU      0.11s WALL (      66 calls)
     init_us_2:cp :      0.11s CPU      0.11s WALL (      66 calls)
     ccgdiagg     :      4.65s CPU      4.66s WALL (      32 calls)
     wfcrot       :      1.29s CPU      1.30s WALL (      30 calls)

     Called by *cgdiagg:
     h_psi        :      5.35s CPU      5.37s WALL (     888 calls)
     s_psi        :      0.19s CPU      0.19s WALL (    1746 calls)

     Called by h_psi:
     h_psi:calbec :      0.21s CPU      0.21s WALL (     888 calls)
     vloc_psi     :      5.00s CPU      5.01s WALL (     888 calls)
     add_vuspsi   :      0.12s CPU      0.12s WALL (     888 calls)
     hs_1psi      :      4.26s CPU      4.26s WALL (     858 calls)
     s_1psi       :      0.18s CPU      0.18s WALL (     858 calls)

     General routines
     calbec       :      0.33s CPU      0.33s WALL (    1778 calls)
     fft          :      1.99s CPU      1.99s WALL (     977 calls)
     ffts         :      0.03s CPU      0.03s WALL (      16 calls)
     fftw         :      4.89s CPU      4.90s WALL (    2544 calls)
 
     Parallel routines
 
     PWSCF        :     30.13s CPU     32.47s WALL

 
   This run was terminated on:  10:37:23   7Oct2022            

=------------------------------------------------------------------------------=
   JOB DONE.
=------------------------------------------------------------------------------=
