
     Program PWSCF v.7.1 starts on 10Oct2022 at  9:47: 6 

     This program is part of the open-source Quantum ESPRESSO suite
     for quantum simulation of materials; please cite
         "P. Giannozzi et al., J. Phys.:Condens. Matter 21 395502 (2009);
         "P. Giannozzi et al., J. Phys.:Condens. Matter 29 465901 (2017);
         "P. Giannozzi et al., J. Chem. Phys. 152 154105 (2020);
          URL http://www.quantum-espresso.org", 
     in publications or presentations arising from this work. More details at
     http://www.quantum-espresso.org/quote

     Parallel version (MPI), running on    24 processors

     MPI processes distributed on     3 nodes
     49063 MiB available memory on the printing compute node when the environment starts
 
     Waiting for input...
     Reading input from standard input

     Current dimensions of program PWSCF are:
     Max number of different atomic species (ntypx) = 10
     Max number of k-points (npk) =  40000
     Max angular momentum in pseudopotentials (lmaxx) =  4
     file Pt.pbe-n-rrkjus_psl.1.0.0.UPF: wavefunction(s)  6S renormalized

     **************************************************************************
     Initializing libbeef V0.1.2 with the BEEF-vdW functional.
     Citation: Wellendorff et al., PRB 85, 235149 (2012).
     **************************************************************************


     IMPORTANT: XC functional enforced from input :
     Exchange-correlation= BEEF-VDW
                           (   1   4  43  14   2   0   0)
     Any further DFT definition will be discarded
     Please, verify this is what you really want

 
     K-points division:     npool     =      24
     Subspace diagonalization in iterative solution of the eigenvalue problem:
     a serial algorithm will be used

 
     G-vector sticks info
     --------------------
     sticks:   dense  smooth     PW     G-vecs:    dense   smooth      PW
     Sum        1345    1345    385                32647    32647    5065
 
     Using Slab Decomposition
 


     bravais-lattice index     =            2
     lattice parameter (alat)  =       7.5760  a.u.
     unit-cell volume          =     108.7076 (a.u.)^3
     number of atoms/cell      =            1
     number of atomic types    =            1
     number of electrons       =        10.00
     number of Kohn-Sham states=            9
     kinetic-energy cutoff     =     170.0000  Ry
     charge density cutoff     =     680.0000  Ry
     scf convergence threshold =      1.0E-09
     mixing beta               =       0.7000
     number of iterations used =            8  plain     mixing
     Exchange-correlation= BEEF-VDW
                           (   1   4  43  14   2   0   0)

     celldm(1)=   7.576000  celldm(2)=   0.000000  celldm(3)=   0.000000
     celldm(4)=   0.000000  celldm(5)=   0.000000  celldm(6)=   0.000000

     crystal axes: (cart. coord. in units of alat)
               a(1) = (  -0.500000   0.000000   0.500000 )  
               a(2) = (   0.000000   0.500000   0.500000 )  
               a(3) = (  -0.500000   0.500000   0.000000 )  

     reciprocal axes: (cart. coord. in units 2 pi/alat)
               b(1) = ( -1.000000 -1.000000  1.000000 )  
               b(2) = (  1.000000  1.000000  1.000000 )  
               b(3) = ( -1.000000  1.000000 -1.000000 )  


     PseudoPot. # 1 for Pt read from file:
     ./pseudo/Pt.pbe-n-rrkjus_psl.1.0.0.UPF
     MD5 check sum: 6bc887cfe28d63a5fc1f72d35a7d3ef7
     Pseudo is Ultrasoft + core correction, Zval = 10.0
     Generated using &quot;atomic&quot; code by A. Dal Corso  v.6.3
     Using radial grid of 1277 points,  6 beta functions with: 
                l(1) =   0
                l(2) =   0
                l(3) =   1
                l(4) =   1
                l(5) =   2
                l(6) =   2
     Q(r) pseudized with 0 coefficients 


     atomic species   valence    mass     pseudopotential
        Pt            10.00   195.07800     Pt( 1.00)

     48 Sym. Ops., with inversion, found



   Cartesian axes

     site n.     atom                  positions (alat units)
         1           Pt  tau(   1) = (   0.0000000   0.0000000   0.0000000  )

     number of k points=    29  Gaussian smearing, width (Ry)=  0.0200
                       cart. coord. in units 2pi/alat
        k(    1) = (   0.0000000   0.0000000   0.0000000), wk =   0.0039062
        k(    2) = (  -0.1250000   0.1250000  -0.1250000), wk =   0.0312500
        k(    3) = (  -0.2500000   0.2500000  -0.2500000), wk =   0.0312500
        k(    4) = (  -0.3750000   0.3750000  -0.3750000), wk =   0.0312500
        k(    5) = (   0.5000000  -0.5000000   0.5000000), wk =   0.0156250
        k(    6) = (   0.0000000   0.2500000   0.0000000), wk =   0.0234375
        k(    7) = (  -0.1250000   0.3750000  -0.1250000), wk =   0.0937500
        k(    8) = (  -0.2500000   0.5000000  -0.2500000), wk =   0.0937500
        k(    9) = (   0.6250000  -0.3750000   0.6250000), wk =   0.0937500
        k(   10) = (   0.5000000  -0.2500000   0.5000000), wk =   0.0937500
        k(   11) = (   0.3750000  -0.1250000   0.3750000), wk =   0.0937500
        k(   12) = (   0.2500000   0.0000000   0.2500000), wk =   0.0468750
        k(   13) = (   0.0000000   0.5000000   0.0000000), wk =   0.0234375
        k(   14) = (  -0.1250000   0.6250000  -0.1250000), wk =   0.0937500
        k(   15) = (   0.7500000  -0.2500000   0.7500000), wk =   0.0937500
        k(   16) = (   0.6250000  -0.1250000   0.6250000), wk =   0.0937500
        k(   17) = (   0.5000000   0.0000000   0.5000000), wk =   0.0468750
        k(   18) = (   0.0000000   0.7500000   0.0000000), wk =   0.0234375
        k(   19) = (   0.8750000  -0.1250000   0.8750000), wk =   0.0937500
        k(   20) = (   0.7500000   0.0000000   0.7500000), wk =   0.0468750
        k(   21) = (   0.0000000  -1.0000000   0.0000000), wk =   0.0117188
        k(   22) = (  -0.2500000   0.5000000   0.0000000), wk =   0.0937500
        k(   23) = (   0.6250000  -0.3750000   0.8750000), wk =   0.1875000
        k(   24) = (   0.5000000  -0.2500000   0.7500000), wk =   0.0937500
        k(   25) = (   0.7500000  -0.2500000   1.0000000), wk =   0.0937500
        k(   26) = (   0.6250000  -0.1250000   0.8750000), wk =   0.1875000
        k(   27) = (   0.5000000   0.0000000   0.7500000), wk =   0.0937500
        k(   28) = (  -0.2500000  -1.0000000   0.0000000), wk =   0.0468750
        k(   29) = (  -0.5000000  -1.0000000   0.0000000), wk =   0.0234375

     Dense  grid:    32647 G-vectors     FFT dimensions: (  45,  45,  45)

     Estimated max dynamical RAM per process >      29.08 MB

     Estimated total dynamical RAM >     514.49 MB

     Initial potential from superposition of free atoms

     starting charge       9.9998, renormalised to      10.0000


     %%%%%%%%%%%%%%%%%%%%%%%%%%%%%%%%%%%%%%%%%%%%%%%%%%%%%%%%%%%%%%%%%%%%%%%%
     %                                                                      %
     % You are using vdW-DF, which was implemented by the Thonhauser group. %
     % Please cite the following two papers that made this development      %
     % possible and the two reviews that describe the various versions:     %
     %                                                                      %
     %   T. Thonhauser et al., PRL 115, 136402 (2015).                      %
     %   T. Thonhauser et al., PRB 76, 125112 (2007).                       %
     %   K. Berland et al., Rep. Prog. Phys. 78, 066501 (2015).             %
     %   D.C. Langreth et al., J. Phys.: Condens. Matter 21, 084203 (2009). %
     %                                                                      %
     % If you are calculating stress with vdW-DF, please also cite:         %
     %                                                                      %
     %   R. Sabatini et al., J. Phys.: Condens. Matter 24, 424209 (2012).   %
     %                                                                      %
     %%%%%%%%%%%%%%%%%%%%%%%%%%%%%%%%%%%%%%%%%%%%%%%%%%%%%%%%%%%%%%%%%%%%%%%%

     %%%%%%%%%%%%%%%%%%%%%%%%%%%%%%%%%%%%%%%%%%%%%%%%%%%%%%%%%%%%%%%%%%%%%%%%
     %                                                                      %
     %  vdW-DF NEWS:                                                        %
     %                                                                      %
     %  * vdW-DF3 is now available. DOI: 10.1021/acs.jctc.0c00471           %
     %    use with input_dft = 'vdW-DF3-opt1' or 'vdW-DF3-opt2'             %
     %                                                                      %
     %  * Unscreened and range-separated vdW-DF hybrid functionals          %
     %    DOI: 10.1063/1.4986522 and 10.1088/1361-648X/ac2ad2               %
     %    use with input_dft = 'vdW-DF-cx0' (etc) and 'vdW-DF-ahcx'         %
     %                                                                      %
     %%%%%%%%%%%%%%%%%%%%%%%%%%%%%%%%%%%%%%%%%%%%%%%%%%%%%%%%%%%%%%%%%%%%%%%%


     Starting wfcs are    9 randomized atomic wfcs

     total cpu time spent up to now is       15.3 secs

     Self-consistent Calculation

     iteration #  1     ecut=   170.00 Ry     beta= 0.70
     CG style diagonalization
     ethr =  1.00E-02,  avg # of iterations =  3.6

     Threshold (ethr) on eigenvalues was too large:
     Diagonalizing with lowered threshold

     CG style diagonalization
     c_bands:  1 eigenvalues not converged
     ethr =  1.14E-04,  avg # of iterations =  5.9

     total cpu time spent up to now is       17.1 secs

     total energy              =     -66.16443841 Ry
     estimated scf accuracy    <       0.03224359 Ry

     iteration #  2     ecut=   170.00 Ry     beta= 0.70
     CG style diagonalization
     ethr =  3.22E-04,  avg # of iterations =  3.2

     total cpu time spent up to now is       18.0 secs

     total energy              =     -66.17056621 Ry
     estimated scf accuracy    <       0.00177195 Ry

     iteration #  3     ecut=   170.00 Ry     beta= 0.70
     CG style diagonalization
     ethr =  1.77E-05,  avg # of iterations =  4.6

     total cpu time spent up to now is       19.2 secs

     total energy              =     -66.17159528 Ry
     estimated scf accuracy    <       0.00013536 Ry

     iteration #  4     ecut=   170.00 Ry     beta= 0.70
     CG style diagonalization
     ethr =  1.35E-06,  avg # of iterations =  5.0

     total cpu time spent up to now is       20.2 secs

     total energy              =     -66.17167196 Ry
     estimated scf accuracy    <       0.00001447 Ry

     iteration #  5     ecut=   170.00 Ry     beta= 0.70
     CG style diagonalization
     ethr =  1.45E-07,  avg # of iterations =  4.7

     total cpu time spent up to now is       21.3 secs

     total energy              =     -66.17168983 Ry
     estimated scf accuracy    <       0.00000897 Ry

     iteration #  6     ecut=   170.00 Ry     beta= 0.70
     CG style diagonalization
     ethr =  8.97E-08,  avg # of iterations =  3.2

     total cpu time spent up to now is       22.2 secs

     total energy              =     -66.17169098 Ry
     estimated scf accuracy    <       0.00000066 Ry

     iteration #  7     ecut=   170.00 Ry     beta= 0.70
     CG style diagonalization
     ethr =  6.61E-09,  avg # of iterations =  4.2

     total cpu time spent up to now is       23.2 secs

     total energy              =     -66.17169142 Ry
     estimated scf accuracy    <          2.0E-09 Ry

     iteration #  8     ecut=   170.00 Ry     beta= 0.70
     CG style diagonalization
     ethr =  2.03E-11,  avg # of iterations =  6.7

     total cpu time spent up to now is       24.5 secs

     total energy              =     -66.17169147 Ry
     estimated scf accuracy    <          2.0E-09 Ry

     iteration #  9     ecut=   170.00 Ry     beta= 0.70
     CG style diagonalization
     ethr =  2.03E-11,  avg # of iterations =  3.4

     total cpu time spent up to now is       25.4 secs

     End of self-consistent calculation

          k = 0.0000 0.0000 0.0000 (  4015 PWs)   bands (ev):

     6.5590  12.4496  12.4496  12.4496  14.3203  14.3203  31.6942  36.2119
    36.2119

          k =-0.1250 0.1250-0.1250 (  4059 PWs)   bands (ev):

     7.1300  12.2462  12.6473  12.6473  14.2400  14.2400  32.3727  33.4781
    36.9409

          k =-0.2500 0.2500-0.2500 (  4050 PWs)   bands (ev):

     8.4826  12.1862  12.7802  12.7802  14.5054  14.5054  29.0495  32.9780
    38.1152

          k =-0.3750 0.3750-0.3750 (  4077 PWs)   bands (ev):

     9.2401  12.5266  12.5266  13.8073  15.3494  15.3494  24.2833  31.6893
    36.2506

          k = 0.5000-0.5000 0.5000 (  4092 PWs)   bands (ev):

     9.2861  12.3845  12.3845  15.8078  15.8078  15.8464  21.2707  31.0859
    35.0976

          k = 0.0000 0.2500 0.0000 (  4063 PWs)   bands (ev):

     7.3244  12.0038  12.8386  12.8386  13.8394  14.5131  32.7386  34.5005
    35.7079

          k =-0.1250 0.3750-0.1250 (  4048 PWs)   bands (ev):

     8.4778  11.6519  12.8994  13.1592  13.9829  14.8128  30.9316  33.6534
    35.0496

          k =-0.2500 0.5000-0.2500 (  4062 PWs)   bands (ev):

     9.5676  12.1708  12.3947  13.0241  15.5065  15.5137  26.0348  32.5613
    34.1429

          k = 0.6250-0.3750 0.6250 (  4059 PWs)   bands (ev):

     9.7161  12.0751  12.7822  13.6569  15.8391  17.8219  21.6869  31.5610
    33.9770

          k = 0.5000-0.2500 0.5000 (  4066 PWs)   bands (ev):

     9.7450  12.1788  12.7739  13.4545  15.2283  17.2997  23.0335  31.4763
    33.2182

          k = 0.3750-0.1250 0.3750 (  4066 PWs)   bands (ev):

     9.3680  11.9623  12.6133  13.0419  14.1534  15.7842  27.7096  32.1629
    34.5933

          k = 0.2500 0.0000 0.2500 (  4067 PWs)   bands (ev):

     8.0106  11.9151  12.8477  12.9752  13.8028  14.7123  31.7205  32.8838
    35.6551

          k = 0.0000 0.5000 0.0000 (  4064 PWs)   bands (ev):

     9.1473  11.0557  13.1823  13.9353  13.9353  15.0010  32.7259  32.7260
    33.5531

          k =-0.1250 0.6250-0.1250 (  4067 PWs)   bands (ev):

     9.9591  10.8274  12.9058  14.1455  15.5894  15.6534  28.0613  31.2839
    31.7513

          k = 0.7500-0.2500 0.7500 (  4069 PWs)   bands (ev):

    10.2652  11.3094  12.7397  13.8643  15.9210  18.7770  23.1557  29.5582
    31.3280

          k = 0.6250-0.1250 0.6250 (  4069 PWs)   bands (ev):

    10.5962  11.6304  12.6089  13.6362  15.2812  19.6352  22.7648  27.8631
    33.3154

          k = 0.5000 0.0000 0.5000 (  4069 PWs)   bands (ev):

    10.6623  11.7275  12.0865  13.5327  14.2877  17.5611  26.4135  28.3095
    34.0703

          k = 0.0000 0.7500 0.0000 (  4076 PWs)   bands (ev):

     9.7423  10.2397  15.1541  15.4003  15.4003  15.5257  28.2795  29.0977
    29.0977

          k = 0.8750-0.1250 0.8750 (  4075 PWs)   bands (ev):

     9.8384  10.2655  14.5325  15.1911  16.0387  18.6850  24.5474  27.2756
    28.6545

          k = 0.7500 0.0000 0.7500 (  4089 PWs)   bands (ev):

    10.2572  10.9715  13.3439  14.6289  15.6465  21.5996  22.3771  25.4797
    30.3981

          k = 0.0000-1.0000 0.0000 (  4088 PWs)   bands (ev):

     9.5202   9.9309  15.7555  16.2145  16.2145  17.9936  24.1405  27.4645
    27.4645

          k =-0.2500 0.5000 0.0000 (  4059 PWs)   bands (ev):

     9.6826  11.2978  12.4498  13.9411  14.0083  15.8287  29.1946  31.1115
    33.9705

          k = 0.6250-0.3750 0.8750 (  4074 PWs)   bands (ev):

    10.4381  11.7518  12.0122  13.6717  15.1578  17.6537  24.8906  29.9079
    32.1305

          k = 0.5000-0.2500 0.7500 (  4072 PWs)   bands (ev):

    10.4543  11.5565  12.8171  13.4308  15.6241  20.2092  21.1033  30.2106
    30.9173

          k = 0.7500-0.2500 1.0000 (  4069 PWs)   bands (ev):

    10.3178  10.6573  12.9396  14.9811  15.3906  17.8585  26.1886  28.0440
    29.7278

          k = 0.6250-0.1250 0.8750 (  4073 PWs)   bands (ev):

    10.6194  11.1430  12.5693  14.3449  15.8539  20.9991  22.8391  26.7220
    28.9771

          k = 0.5000 0.0000 0.7500 (  4078 PWs)   bands (ev):

    11.1527  11.4577  11.8323  14.0863  15.3995  19.8438  25.0580  25.4216
    30.5648

          k =-0.2500-1.0000 0.0000 (  4078 PWs)   bands (ev):

    10.0466  10.4053  14.0100  15.0363  16.2159  20.6441  23.3120  26.5404
    27.4683

          k =-0.5000-1.0000 0.0000 (  4056 PWs)   bands (ev):

    10.8014  11.8003  11.8003  14.0572  16.2173  22.7497  23.9842  23.9842
    27.4170

     the Fermi energy is    15.7613 ev

!    total energy              =     -66.17169147 Ry
     estimated scf accuracy    <          2.4E-10 Ry
     smearing contrib. (-TS)   =      -0.00562042 Ry
     internal energy E=F+TS    =     -66.16607105 Ry

     The total energy is F=E-TS. E is the sum of the following terms:
     one-electron contribution =      14.39905164 Ry
     hartree contribution      =       4.69027323 Ry
     xc contribution           =     -24.73715313 Ry
     ewald contribution        =     -60.51824279 Ry

     convergence has been achieved in   9 iterations

     Writing all to output data dir ./Ptbulk.save/
 
     init_run     :     14.44s CPU     14.93s WALL (       1 calls)
     electrons    :      9.80s CPU     10.34s WALL (       1 calls)

     Called by init_run:
     wfcinit      :      0.10s CPU      0.10s WALL (       1 calls)
     potinit      :     13.06s CPU     13.08s WALL (       1 calls)
     hinit0       :      1.23s CPU      1.70s WALL (       1 calls)

     Called by electrons:
     c_bands      :      4.81s CPU      4.85s WALL (      10 calls)
     sum_band     :      0.73s CPU      0.73s WALL (      10 calls)
     v_of_rho     :     16.44s CPU     16.71s WALL (      10 calls)
     newd         :      0.20s CPU      0.19s WALL (      10 calls)
     mix_rho      :      0.08s CPU      0.08s WALL (      10 calls)
     vdW_kernel   :     11.99s CPU     11.99s WALL (       1 calls)

     Called by c_bands:
     init_us_2    :      0.08s CPU      0.08s WALL (      42 calls)
     init_us_2:cp :      0.08s CPU      0.08s WALL (      42 calls)
     ccgdiagg     :      3.41s CPU      3.43s WALL (      20 calls)
     wfcrot       :      0.77s CPU      0.78s WALL (      18 calls)

     Called by *cgdiagg:
     h_psi        :      3.72s CPU      3.74s WALL (     680 calls)
     s_psi        :      0.13s CPU      0.15s WALL (    1342 calls)

     Called by h_psi:
     h_psi:calbec :      0.14s CPU      0.12s WALL (     680 calls)
     vloc_psi     :      3.50s CPU      3.51s WALL (     680 calls)
     add_vuspsi   :      0.07s CPU      0.09s WALL (     680 calls)
     hs_1psi      :      3.10s CPU      3.10s WALL (     662 calls)
     s_1psi       :      0.13s CPU      0.15s WALL (     662 calls)

     General routines
     calbec       :      0.25s CPU      0.21s WALL (    1362 calls)
     fft          :      1.21s CPU      1.20s WALL (     611 calls)
     ffts         :      0.02s CPU      0.02s WALL (      10 calls)
     fftw         :      3.46s CPU      3.43s WALL (    1828 calls)
 
     Parallel routines
 
     PWSCF        :     24.46s CPU     27.18s WALL

 
   This run was terminated on:   9:47:34  10Oct2022            

=------------------------------------------------------------------------------=
   JOB DONE.
=------------------------------------------------------------------------------=
