
     Program PWSCF v.7.1 starts on  7Oct2022 at 10:56:46 

     This program is part of the open-source Quantum ESPRESSO suite
     for quantum simulation of materials; please cite
         "P. Giannozzi et al., J. Phys.:Condens. Matter 21 395502 (2009);
         "P. Giannozzi et al., J. Phys.:Condens. Matter 29 465901 (2017);
         "P. Giannozzi et al., J. Chem. Phys. 152 154105 (2020);
          URL http://www.quantum-espresso.org", 
     in publications or presentations arising from this work. More details at
     http://www.quantum-espresso.org/quote

     Parallel version (MPI), running on    24 processors

     MPI processes distributed on     3 nodes
     87701 MiB available memory on the printing compute node when the environment starts
 
     Waiting for input...
     Reading input from standard input

     Current dimensions of program PWSCF are:
     Max number of different atomic species (ntypx) = 10
     Max number of k-points (npk) =  40000
     Max angular momentum in pseudopotentials (lmaxx) =  4
     file Pt.pbe-n-rrkjus_psl.1.0.0.UPF: wavefunction(s)  6S renormalized

     **************************************************************************
     Initializing libbeef V0.1.2 with the BEEF-vdW functional.
     Citation: Wellendorff et al., PRB 85, 235149 (2012).
     **************************************************************************


     IMPORTANT: XC functional enforced from input :
     Exchange-correlation= BEEF-VDW
                           (   1   4  43  14   2   0   0)
     Any further DFT definition will be discarded
     Please, verify this is what you really want

 
     K-points division:     npool     =      24
     Subspace diagonalization in iterative solution of the eigenvalue problem:
     a serial algorithm will be used

 
     G-vector sticks info
     --------------------
     sticks:   dense  smooth     PW     G-vecs:    dense   smooth      PW
     Sum        1393    1393    409                34327    34327    5329
 
     Using Slab Decomposition
 


     bravais-lattice index     =            2
     lattice parameter (alat)  =       7.7000  a.u.
     unit-cell volume          =     114.1333 (a.u.)^3
     number of atoms/cell      =            1
     number of atomic types    =            1
     number of electrons       =        10.00
     number of Kohn-Sham states=            9
     kinetic-energy cutoff     =     170.0000  Ry
     charge density cutoff     =     680.0000  Ry
     scf convergence threshold =      1.0E-09
     mixing beta               =       0.7000
     number of iterations used =            8  plain     mixing
     Exchange-correlation= BEEF-VDW
                           (   1   4  43  14   2   0   0)

     celldm(1)=   7.700000  celldm(2)=   0.000000  celldm(3)=   0.000000
     celldm(4)=   0.000000  celldm(5)=   0.000000  celldm(6)=   0.000000

     crystal axes: (cart. coord. in units of alat)
               a(1) = (  -0.500000   0.000000   0.500000 )  
               a(2) = (   0.000000   0.500000   0.500000 )  
               a(3) = (  -0.500000   0.500000   0.000000 )  

     reciprocal axes: (cart. coord. in units 2 pi/alat)
               b(1) = ( -1.000000 -1.000000  1.000000 )  
               b(2) = (  1.000000  1.000000  1.000000 )  
               b(3) = ( -1.000000  1.000000 -1.000000 )  


     PseudoPot. # 1 for Pt read from file:
     ./pseudo/Pt.pbe-n-rrkjus_psl.1.0.0.UPF
     MD5 check sum: 6bc887cfe28d63a5fc1f72d35a7d3ef7
     Pseudo is Ultrasoft + core correction, Zval = 10.0
     Generated using &quot;atomic&quot; code by A. Dal Corso  v.6.3
     Using radial grid of 1277 points,  6 beta functions with: 
                l(1) =   0
                l(2) =   0
                l(3) =   1
                l(4) =   1
                l(5) =   2
                l(6) =   2
     Q(r) pseudized with 0 coefficients 


     atomic species   valence    mass     pseudopotential
        Pt            10.00   195.07800     Pt( 1.00)

     48 Sym. Ops., with inversion, found



   Cartesian axes

     site n.     atom                  positions (alat units)
         1           Pt  tau(   1) = (   0.0000000   0.0000000   0.0000000  )

     number of k points=    29  Gaussian smearing, width (Ry)=  0.0200
                       cart. coord. in units 2pi/alat
        k(    1) = (   0.0000000   0.0000000   0.0000000), wk =   0.0039062
        k(    2) = (  -0.1250000   0.1250000  -0.1250000), wk =   0.0312500
        k(    3) = (  -0.2500000   0.2500000  -0.2500000), wk =   0.0312500
        k(    4) = (  -0.3750000   0.3750000  -0.3750000), wk =   0.0312500
        k(    5) = (   0.5000000  -0.5000000   0.5000000), wk =   0.0156250
        k(    6) = (   0.0000000   0.2500000   0.0000000), wk =   0.0234375
        k(    7) = (  -0.1250000   0.3750000  -0.1250000), wk =   0.0937500
        k(    8) = (  -0.2500000   0.5000000  -0.2500000), wk =   0.0937500
        k(    9) = (   0.6250000  -0.3750000   0.6250000), wk =   0.0937500
        k(   10) = (   0.5000000  -0.2500000   0.5000000), wk =   0.0937500
        k(   11) = (   0.3750000  -0.1250000   0.3750000), wk =   0.0937500
        k(   12) = (   0.2500000   0.0000000   0.2500000), wk =   0.0468750
        k(   13) = (   0.0000000   0.5000000   0.0000000), wk =   0.0234375
        k(   14) = (  -0.1250000   0.6250000  -0.1250000), wk =   0.0937500
        k(   15) = (   0.7500000  -0.2500000   0.7500000), wk =   0.0937500
        k(   16) = (   0.6250000  -0.1250000   0.6250000), wk =   0.0937500
        k(   17) = (   0.5000000   0.0000000   0.5000000), wk =   0.0468750
        k(   18) = (   0.0000000   0.7500000   0.0000000), wk =   0.0234375
        k(   19) = (   0.8750000  -0.1250000   0.8750000), wk =   0.0937500
        k(   20) = (   0.7500000   0.0000000   0.7500000), wk =   0.0468750
        k(   21) = (   0.0000000  -1.0000000   0.0000000), wk =   0.0117188
        k(   22) = (  -0.2500000   0.5000000   0.0000000), wk =   0.0937500
        k(   23) = (   0.6250000  -0.3750000   0.8750000), wk =   0.1875000
        k(   24) = (   0.5000000  -0.2500000   0.7500000), wk =   0.0937500
        k(   25) = (   0.7500000  -0.2500000   1.0000000), wk =   0.0937500
        k(   26) = (   0.6250000  -0.1250000   0.8750000), wk =   0.1875000
        k(   27) = (   0.5000000   0.0000000   0.7500000), wk =   0.0937500
        k(   28) = (  -0.2500000  -1.0000000   0.0000000), wk =   0.0468750
        k(   29) = (  -0.5000000  -1.0000000   0.0000000), wk =   0.0234375

     Dense  grid:    34327 G-vectors     FFT dimensions: (  45,  45,  45)

     Estimated max dynamical RAM per process >      30.14 MB

     Estimated total dynamical RAM >     530.55 MB

     Initial potential from superposition of free atoms

     starting charge       9.9998, renormalised to      10.0000


     %%%%%%%%%%%%%%%%%%%%%%%%%%%%%%%%%%%%%%%%%%%%%%%%%%%%%%%%%%%%%%%%%%%%%%%%
     %                                                                      %
     % You are using vdW-DF, which was implemented by the Thonhauser group. %
     % Please cite the following two papers that made this development      %
     % possible and the two reviews that describe the various versions:     %
     %                                                                      %
     %   T. Thonhauser et al., PRL 115, 136402 (2015).                      %
     %   T. Thonhauser et al., PRB 76, 125112 (2007).                       %
     %   K. Berland et al., Rep. Prog. Phys. 78, 066501 (2015).             %
     %   D.C. Langreth et al., J. Phys.: Condens. Matter 21, 084203 (2009). %
     %                                                                      %
     % If you are calculating stress with vdW-DF, please also cite:         %
     %                                                                      %
     %   R. Sabatini et al., J. Phys.: Condens. Matter 24, 424209 (2012).   %
     %                                                                      %
     %%%%%%%%%%%%%%%%%%%%%%%%%%%%%%%%%%%%%%%%%%%%%%%%%%%%%%%%%%%%%%%%%%%%%%%%

     %%%%%%%%%%%%%%%%%%%%%%%%%%%%%%%%%%%%%%%%%%%%%%%%%%%%%%%%%%%%%%%%%%%%%%%%
     %                                                                      %
     %  vdW-DF NEWS:                                                        %
     %                                                                      %
     %  * vdW-DF3 is now available. DOI: 10.1021/acs.jctc.0c00471           %
     %    use with input_dft = 'vdW-DF3-opt1' or 'vdW-DF3-opt2'             %
     %                                                                      %
     %  * Unscreened and range-separated vdW-DF hybrid functionals          %
     %    DOI: 10.1063/1.4986522 and 10.1088/1361-648X/ac2ad2               %
     %    use with input_dft = 'vdW-DF-cx0' (etc) and 'vdW-DF-ahcx'         %
     %                                                                      %
     %%%%%%%%%%%%%%%%%%%%%%%%%%%%%%%%%%%%%%%%%%%%%%%%%%%%%%%%%%%%%%%%%%%%%%%%


     Starting wfcs are    9 randomized atomic wfcs

     total cpu time spent up to now is       15.4 secs

     Self-consistent Calculation

     iteration #  1     ecut=   170.00 Ry     beta= 0.70
     CG style diagonalization
     ethr =  1.00E-02,  avg # of iterations =  3.6

     Threshold (ethr) on eigenvalues was too large:
     Diagonalizing with lowered threshold

     CG style diagonalization
     ethr =  1.15E-04,  avg # of iterations =  5.7

     total cpu time spent up to now is       17.3 secs

     total energy              =     -66.16192674 Ry
     estimated scf accuracy    <       0.03227409 Ry

     iteration #  2     ecut=   170.00 Ry     beta= 0.70
     CG style diagonalization
     ethr =  3.23E-04,  avg # of iterations =  3.3

     total cpu time spent up to now is       18.2 secs

     total energy              =     -66.16860529 Ry
     estimated scf accuracy    <       0.00252419 Ry

     iteration #  3     ecut=   170.00 Ry     beta= 0.70
     CG style diagonalization
     ethr =  2.52E-05,  avg # of iterations =  4.2

     total cpu time spent up to now is       19.2 secs

     total energy              =     -66.16975144 Ry
     estimated scf accuracy    <       0.00011693 Ry

     iteration #  4     ecut=   170.00 Ry     beta= 0.70
     CG style diagonalization
     ethr =  1.17E-06,  avg # of iterations =  5.7

     total cpu time spent up to now is       20.5 secs

     total energy              =     -66.16984828 Ry
     estimated scf accuracy    <       0.00000118 Ry

     iteration #  5     ecut=   170.00 Ry     beta= 0.70
     CG style diagonalization
     ethr =  1.18E-08,  avg # of iterations =  6.2

     total cpu time spent up to now is       21.7 secs

     total energy              =     -66.16985703 Ry
     estimated scf accuracy    <       0.00000425 Ry

     iteration #  6     ecut=   170.00 Ry     beta= 0.70
     CG style diagonalization
     ethr =  1.18E-08,  avg # of iterations =  3.6

     total cpu time spent up to now is       22.7 secs

     total energy              =     -66.16985786 Ry
     estimated scf accuracy    <       0.00000003 Ry

     iteration #  7     ecut=   170.00 Ry     beta= 0.70
     CG style diagonalization
     ethr =  2.80E-10,  avg # of iterations =  5.6

     total cpu time spent up to now is       23.8 secs

     total energy              =     -66.16985793 Ry
     estimated scf accuracy    <       0.00000002 Ry

     iteration #  8     ecut=   170.00 Ry     beta= 0.70
     CG style diagonalization
     ethr =  2.12E-10,  avg # of iterations =  3.1

     total cpu time spent up to now is       24.7 secs

     total energy              =     -66.16985793 Ry
     estimated scf accuracy    <          4.4E-09 Ry

     iteration #  9     ecut=   170.00 Ry     beta= 0.70
     CG style diagonalization
     ethr =  4.40E-11,  avg # of iterations =  4.6

     total cpu time spent up to now is       25.8 secs

     total energy              =     -66.16985793 Ry
     estimated scf accuracy    <          1.7E-09 Ry

     iteration # 10     ecut=   170.00 Ry     beta= 0.70
     CG style diagonalization
     ethr =  1.71E-11,  avg # of iterations =  3.3

     total cpu time spent up to now is       26.7 secs

     End of self-consistent calculation

          k = 0.0000 0.0000 0.0000 (  4279 PWs)   bands (ev):

     5.9472  11.5953  11.5953  11.5953  13.3163  13.3163  30.5934  34.8188
    34.8188

          k =-0.1250 0.1250-0.1250 (  4282 PWs)   bands (ev):

     6.4932  11.4104  11.7788  11.7788  13.2449  13.2449  31.1583  32.1364
    35.4650

          k =-0.2500 0.2500-0.2500 (  4272 PWs)   bands (ev):

     7.8012  11.3592  11.9029  11.9029  13.4930  13.4930  27.5718  31.7428
    36.3623

          k =-0.3750 0.3750-0.3750 (  4278 PWs)   bands (ev):

     8.5679  11.6696  11.6696  12.9043  14.2674  14.2674  22.8210  30.5444
    34.5985

          k = 0.5000-0.5000 0.5000 (  4314 PWs)   bands (ev):

     8.6260  11.5386  11.5386  14.6852  14.6852  14.9218  19.8174  29.9837
    33.5391

          k = 0.0000 0.2500 0.0000 (  4280 PWs)   bands (ev):

     6.6790  11.1869  11.9561  11.9561  12.8795  13.4942  31.5367  33.1494
    34.1838

          k =-0.1250 0.3750-0.1250 (  4277 PWs)   bands (ev):

     7.7890  10.8634  12.0164  12.2533  13.0155  13.7721  29.4444  32.3388
    33.4101

          k =-0.2500 0.5000-0.2500 (  4263 PWs)   bands (ev):

     8.8679  11.3489  11.5497  12.1297  14.4162  14.4366  24.5602  31.3057
    32.5166

          k = 0.6250-0.3750 0.6250 (  4284 PWs)   bands (ev):

     9.0319  11.2585  11.9071  12.7446  14.7138  16.6788  20.2687  30.3147
    32.4018

          k = 0.5000-0.2500 0.5000 (  4282 PWs)   bands (ev):

     9.0542  11.3530  11.8998  12.5593  14.1578  16.1268  21.6023  30.1144
    31.7946

          k = 0.3750-0.1250 0.3750 (  4278 PWs)   bands (ev):

     8.6585  11.1501  11.7558  12.1467  13.1718  14.6734  26.2183  30.6735
    33.1579

          k = 0.2500 0.0000 0.2500 (  4295 PWs)   bands (ev):

     7.3377  11.1066  11.9664  12.0831  12.8467  13.6809  30.3058  31.4642
    34.2225

          k = 0.0000 0.5000 0.0000 (  4256 PWs)   bands (ev):

     8.4429  10.3118  12.2807  12.9712  12.9712  13.9435  31.1501  31.1501
    32.1727

          k =-0.1250 0.6250-0.1250 (  4267 PWs)   bands (ev):

     9.2527  10.0984  12.0240  13.1649  14.4845  14.5760  26.5683  29.7643
    30.1835

          k = 0.7500-0.2500 0.7500 (  4267 PWs)   bands (ev):

     9.5631  10.5522  11.8717  12.9073  14.7886  17.5400  21.7988  28.0049
    29.8143

          k = 0.6250-0.1250 0.6250 (  4274 PWs)   bands (ev):

     9.8686  10.8517  11.7571  12.6981  14.2065  18.3701  21.3679  26.3508
    31.6975

          k = 0.5000 0.0000 0.5000 (  4259 PWs)   bands (ev):

     9.9047  10.9337  11.2762  12.6028  13.2951  16.3415  24.9584  26.7506
    32.7239

          k = 0.0000 0.7500 0.0000 (  4276 PWs)   bands (ev):

     9.0741   9.5528  14.1670  14.3180  14.3180  14.4248  26.6331  27.6865
    27.6865

          k = 0.8750-0.1250 0.8750 (  4269 PWs)   bands (ev):

     9.1761   9.5755  13.5454  14.1238  14.8967  17.4948  23.0969  25.8160
    27.2698

          k = 0.7500 0.0000 0.7500 (  4272 PWs)   bands (ev):

     9.5684  10.2341  12.4393  13.6113  14.5404  20.2743  21.0534  23.9868
    28.9112

          k = 0.0000-1.0000 0.0000 (  4264 PWs)   bands (ev):

     8.8799   9.2645  14.6349  15.0578  15.0578  16.9681  22.5433  26.1543
    26.1543

          k =-0.2500 0.5000 0.0000 (  4257 PWs)   bands (ev):

     8.9548  10.5356  11.6045  12.9764  13.0411  14.7142  27.6988  29.5135
    32.5049

          k = 0.6250-0.3750 0.8750 (  4274 PWs)   bands (ev):

     9.7083  10.9648  11.1934  12.7312  14.0969  16.4437  23.4576  28.3625
    30.6601

          k = 0.5000-0.2500 0.7500 (  4270 PWs)   bands (ev):

     9.7309  10.7836  11.9534  12.5084  14.5198  18.9861  19.7014  28.6319
    29.4661

          k = 0.7500-0.2500 1.0000 (  4259 PWs)   bands (ev):

     9.6168   9.9397  12.0573  13.9383  14.3088  16.6529  24.7361  26.5925
    28.1925

          k = 0.6250-0.1250 0.8750 (  4271 PWs)   bands (ev):

     9.9070  10.3930  11.7154  13.3531  14.7304  19.6587  21.5116  25.2266
    27.4910

          k = 0.5000 0.0000 0.7500 (  4267 PWs)   bands (ev):

    10.4053  10.6793  11.0309  13.1154  14.3160  18.5550  23.6085  23.9868
    29.0258

          k =-0.2500-1.0000 0.0000 (  4270 PWs)   bands (ev):

     9.3748   9.7045  13.0585  13.9844  15.0591  19.4188  21.8190  25.1891
    26.0296

          k =-0.5000-1.0000 0.0000 (  4284 PWs)   bands (ev):

    10.0842  11.0011  11.0011  13.0890  15.0603  21.2968  22.6385  22.6385
    25.9253

     the Fermi energy is    14.6534 ev

!    total energy              =     -66.16985793 Ry
     estimated scf accuracy    <          5.4E-10 Ry
     smearing contrib. (-TS)   =      -0.00598429 Ry
     internal energy E=F+TS    =     -66.16387364 Ry

     The total energy is F=E-TS. E is the sum of the following terms:
     one-electron contribution =      13.06897306 Ry
     hartree contribution      =       5.00717169 Ry
     xc contribution           =     -24.69635509 Ry
     ewald contribution        =     -59.54366330 Ry

     convergence has been achieved in  10 iterations

     Writing all to output data dir ./Ptbulk.save/
 
     init_run     :     14.74s CPU     15.10s WALL (       1 calls)
     electrons    :     11.03s CPU     11.47s WALL (       1 calls)

     Called by init_run:
     wfcinit      :      0.10s CPU      0.10s WALL (       1 calls)
     potinit      :     13.36s CPU     13.41s WALL (       1 calls)
     hinit0       :      1.24s CPU      1.54s WALL (       1 calls)

     Called by electrons:
     c_bands      :      5.28s CPU      5.33s WALL (      11 calls)
     sum_band     :      0.81s CPU      0.80s WALL (      11 calls)
     v_of_rho     :     17.01s CPU     17.26s WALL (      11 calls)
     newd         :      0.24s CPU      0.24s WALL (      11 calls)
     mix_rho      :      0.06s CPU      0.10s WALL (      11 calls)
     vdW_kernel   :     11.99s CPU     11.99s WALL (       1 calls)

     Called by c_bands:
     init_us_2    :      0.08s CPU      0.09s WALL (      46 calls)
     init_us_2:cp :      0.08s CPU      0.09s WALL (      46 calls)
     ccgdiagg     :      3.87s CPU      3.89s WALL (      22 calls)
     wfcrot       :      0.88s CPU      0.89s WALL (      20 calls)

     Called by *cgdiagg:
     h_psi        :      4.23s CPU      4.22s WALL (     758 calls)
     s_psi        :      0.15s CPU      0.19s WALL (    1496 calls)

     Called by h_psi:
     h_psi:calbec :      0.11s CPU      0.15s WALL (     758 calls)
     vloc_psi     :      4.00s CPU      3.95s WALL (     758 calls)
     add_vuspsi   :      0.07s CPU      0.10s WALL (     758 calls)
     hs_1psi      :      3.53s CPU      3.50s WALL (     738 calls)
     s_1psi       :      0.13s CPU      0.18s WALL (     738 calls)

     General routines
     calbec       :      0.25s CPU      0.25s WALL (    1518 calls)
     fft          :      1.28s CPU      1.31s WALL (     672 calls)
     ffts         :      0.01s CPU      0.02s WALL (      11 calls)
     fftw         :      3.92s CPU      3.84s WALL (    2034 calls)
 
     Parallel routines
 
     PWSCF        :     25.98s CPU     27.98s WALL

 
   This run was terminated on:  10:57:14   7Oct2022            

=------------------------------------------------------------------------------=
   JOB DONE.
=------------------------------------------------------------------------------=
